 # File generated with Atomsk by kevin on 2022-03-20 17:47:58
 
           8  atoms
           2  atom types
 
      0.000000000000       4.614400000000  xlo xhi
      0.000000000000       4.614400000000  ylo yhi
      0.000000000000       4.591328000000  zlo zhi
 
Masses
 
            1   58.93319500             # Co
            2   51.99610000             # Cr
 
Atoms # atomic
 
         1    1        0.006935853705      -0.005496397785      -0.003257569981
         2    2        2.301728791964       2.314547741400       2.304563540367
         3    1        0.006935853705       2.301703602215       2.292406430019
         4    2        2.301728791964       0.007347741400       0.008899540367
         5    1        2.314135853705       2.301703602215      -0.003257569981
         6    2        0.006935853705      -0.005496397785       2.292406430019
         7    1        2.314135853705      -0.005496397785       2.292406430019
         8    2        0.006935853705       2.301703602215      -0.003257569981
