 # File generated with Atomsk by kevin on 2022-03-20 17:47:58
 
           8  atoms
           2  atom types
 
      0.000000000000       4.614400000000  xlo xhi
      0.000000000000       4.614400000000  ylo yhi
      0.000000000000       4.614400000000  zlo zhi
     -0.023072000000       0.000000000000       0.000000000000  xy xz yz
 
Masses
 
            1   58.93319500             # Co
            2   51.99610000             # Cr
 
Atoms # atomic
 
         1    1        0.006669480485       0.001146236367      -0.001813883029
         2    2        2.301194622213       2.311023742598       2.316152062803
         3    1       -0.004866519515       2.308346236367       2.305386116971
         4    2        2.312730622213       0.003823742598       0.008952062803
         5    1        2.302333480485       2.308346236367      -0.001813883029
         6    2        0.006669480485       0.001146236367       2.305386116971
         7    1        2.313869480485       0.001146236367       2.305386116971
         8    2       -0.004866519515       2.308346236367      -0.001813883029
