 # File generated with Atomsk by kevin on 2022-03-20 17:47:58
 
           8  atoms
           2  atom types
 
      0.000000000000       4.614400000000  xlo xhi
      0.000000000000       4.614400000000  ylo yhi
      0.000000000000       4.614400000000  zlo zhi
      0.000000000000      -0.023072000000       0.000000000000  xy xz yz
 
Masses
 
            1   58.93319500             # Co
            2   51.99610000             # Cr
 
Atoms # atomic
 
         1    1        0.004605919447       0.006042255768       0.001252137476
         2    2        2.304998583231       2.305249796061       2.312770331991
         3    1       -0.006930080553       2.313242255768       2.308452137476
         4    2        2.316534583231      -0.001950203939       0.005570331991
         5    1        2.311805919447       2.313242255768       0.001252137476
         6    2       -0.006930080553       0.006042255768       2.308452137476
         7    1        2.300269919447       0.006042255768       2.308452137476
         8    2        0.004605919447       2.313242255768       0.001252137476
