
     Program PWSCF v.6.7MaX starts on 22Mar2022 at 10:47:30 

     This program is part of the open-source Quantum ESPRESSO suite
     for quantum simulation of materials; please cite
         "P. Giannozzi et al., J. Phys.:Condens. Matter 21 395502 (2009);
         "P. Giannozzi et al., J. Phys.:Condens. Matter 29 465901 (2017);
          URL http://www.quantum-espresso.org", 
     in publications or presentations arising from this work. More details at
     http://www.quantum-espresso.org/quote

     Parallel version (MPI), running on    24 processors

     MPI processes distributed on     1 nodes
     R & G space division:  proc/nbgrp/npool/nimage =      24
     Reading input from /home/kevin/QE_CoCrFeMnNi/CoCrFeMnNi/Opt/binary/Opt-B1-CoCr/Mix/elastic/Chg-4-B1-CoCr.in

     Current dimensions of program PWSCF are:
     Max number of different atomic species (ntypx) = 10
     Max number of k-points (npk) =  40000
     Max angular momentum in pseudopotentials (lmaxx) =  3

     Subspace diagonalization in iterative solution of the eigenvalue problem:
     a serial algorithm will be used

     Found symmetry operation: I + ( -0.0000  0.5000  0.5000)
     This is a supercell, fractional translations are disabled

     Parallelization info
     --------------------
     sticks:   dense  smooth     PW     G-vecs:    dense   smooth      PW
     Min         272      91     25                16559     3190     481
     Max         275      92     26                16561     3193     484
     Sum        6541    2185    613               397439    76581   11565



     bravais-lattice index     =            0
     lattice parameter (alat)  =       8.7200  a.u.
     unit-cell volume          =     663.0440 (a.u.)^3
     number of atoms/cell      =            8
     number of atomic types    =            2
     number of electrons       =       124.00
     number of Kohn-Sham states=           74
     kinetic-energy cutoff     =      90.0000  Ry
     charge density cutoff     =    1080.0000  Ry
     scf convergence threshold =      1.0E-08
     mixing beta               =       0.2000
     number of iterations used =            8  plain     mixing
     energy convergence thresh.=      1.0E-05
     force convergence thresh. =      1.0E-04
     Exchange-correlation= SLA  PW   PBE  PBE
                           (   1   4   3   4   0   0   0)
     nstep                     =          100


     celldm(1)=   8.719952  celldm(2)=   0.000000  celldm(3)=   0.000000
     celldm(4)=   0.000000  celldm(5)=   0.000000  celldm(6)=   0.000000

     crystal axes: (cart. coord. in units of alat)
               a(1) = (   1.000000   0.000000   0.000000 )  
               a(2) = (   0.000000   1.000000   0.000000 )  
               a(3) = (   0.000000  -0.005000   1.000000 )  

     reciprocal axes: (cart. coord. in units 2 pi/alat)
               b(1) = (  1.000000  0.000000 -0.000000 )  
               b(2) = ( -0.000000  1.000000  0.005000 )  
               b(3) = (  0.000000  0.000000  1.000000 )  


     PseudoPot. # 1 for Cr read from file:
     /opt/QEpot/SSSP_efficiency_pseudos/cr_pbe_v1.5.uspp.F.UPF
     MD5 check sum: 0d52af634a40206e4dee301ad30da4bf
     Pseudo is Ultrasoft + core correction, Zval = 14.0
     Generated by new atomic code, or converted to UPF format
     Using radial grid of  857 points,  6 beta functions with: 
                l(1) =   0
                l(2) =   0
                l(3) =   1
                l(4) =   1
                l(5) =   2
                l(6) =   2
     Q(r) pseudized with  8 coefficients,  rinner =    0.950   0.950   0.950
                                                       0.950   0.950

     PseudoPot. # 2 for Co read from file:
     /opt/QEpot/SSSP_efficiency_pseudos/Co_pbe_v1.2.uspp.F.UPF
     MD5 check sum: 5f91765df6ddd3222702df6e7b74a16d
     Pseudo is Ultrasoft + core correction, Zval = 17.0
     Generated by new atomic code, or converted to UPF format
     Using radial grid of  863 points,  6 beta functions with: 
                l(1) =   0
                l(2) =   0
                l(3) =   1
                l(4) =   1
                l(5) =   2
                l(6) =   2
     Q(r) pseudized with  8 coefficients,  rinner =    1.200   1.200   1.200
                                                       1.200   1.200

     atomic species   valence    mass     pseudopotential
        Cr            14.00    51.99610     Cr( 1.00)
        Co            17.00    58.93300     Co( 1.00)

     Starting magnetic structure 
     atomic species   magnetization
        Cr           0.000
        Co           0.000

     No symmetry found



   Cartesian axes

     site n.     atom                  positions (alat units)
         1           Cr  tau(   1) = (   0.0008990   0.4986158   0.0011953  )
         2           Co  tau(   2) = (   0.5009390  -0.0040501   0.5011595  )
         3           Cr  tau(   3) = (   0.0008990  -0.0038843   0.5011950  )
         4           Co  tau(   4) = (   0.5009390   0.4984503   0.0011596  )
         5           Cr  tau(   5) = (   0.5003358  -0.0018133  -0.0004173  )
         6           Co  tau(   6) = (   0.0007645   0.4961410   0.5012172  )
         7           Cr  tau(   7) = (   0.5003359   0.4956869   0.4995826  )
         8           Co  tau(   8) = (   0.0007649  -0.0013591   0.0012175  )

     number of k points=   112  Gaussian smearing, width (Ry)=  0.0100

     Number of k-points >= 100: set verbosity='high' to print them.

     Dense  grid:   397439 G-vectors     FFT dimensions: (  96,  96,  96)

     Smooth grid:    76581 G-vectors     FFT dimensions: (  54,  54,  54)

     Estimated max dynamical RAM per process >     174.71 MB

     Estimated total dynamical RAM >       4.09 GB

     Check: negative core charge=   -0.000010
     Generating pointlists ...
     new r_m :   0.2056 (alat units)  1.7928 (a.u.) for type    1
     new r_m :   0.2056 (alat units)  1.7928 (a.u.) for type    2

     Initial potential from superposition of free atoms

     starting charge  115.99991, renormalised to  124.00000

     negative rho (up, down):  1.662E-03 1.662E-03
     Starting wfcs are   92 randomized atomic wfcs

     total cpu time spent up to now is       25.2 secs

     Self-consistent Calculation

     iteration #  1     ecut=    90.00 Ry     beta= 0.20
     Davidson diagonalization with overlap
     ethr =  1.00E-02,  avg # of iterations =  3.0

     negative rho (up, down):  1.110E-03 1.110E-03

     total cpu time spent up to now is      107.0 secs

     total energy              =   -1872.68263420 Ry
     estimated scf accuracy    <     112.08021727 Ry

     total magnetization       =     0.00 Bohr mag/cell
     absolute magnetization    =     0.01 Bohr mag/cell

     iteration #  2     ecut=    90.00 Ry     beta= 0.20
     Davidson diagonalization with overlap
     ethr =  1.00E-02,  avg # of iterations =  5.2

     negative rho (up, down):  1.831E-03 1.831E-03

     total cpu time spent up to now is      203.4 secs

     total energy              =   -1895.32247620 Ry
     estimated scf accuracy    <      61.55095486 Ry

     total magnetization       =    -0.00 Bohr mag/cell
     absolute magnetization    =     0.01 Bohr mag/cell

     iteration #  3     ecut=    90.00 Ry     beta= 0.20
     Davidson diagonalization with overlap
     ethr =  1.00E-02,  avg # of iterations =  2.7

     negative rho (up, down):  5.120E-03 5.115E-03

     total cpu time spent up to now is      265.4 secs

     total energy              =   -1886.43844834 Ry
     estimated scf accuracy    <      20.00885155 Ry

     total magnetization       =     0.00 Bohr mag/cell
     absolute magnetization    =     0.01 Bohr mag/cell

     iteration #  4     ecut=    90.00 Ry     beta= 0.20
     Davidson diagonalization with overlap
     ethr =  1.00E-02,  avg # of iterations =  5.5

     negative rho (up, down):  1.838E-03 1.836E-03

     total cpu time spent up to now is      364.5 secs

     total energy              =   -1882.81637035 Ry
     estimated scf accuracy    <     183.85186514 Ry

     total magnetization       =    -0.02 Bohr mag/cell
     absolute magnetization    =     0.02 Bohr mag/cell

     iteration #  5     ecut=    90.00 Ry     beta= 0.20
     Davidson diagonalization with overlap
     ethr =  1.00E-02,  avg # of iterations =  5.4

     negative rho (up, down):  1.836E-03 1.831E-03

     total cpu time spent up to now is      453.4 secs

     total energy              =   -1895.38298205 Ry
     estimated scf accuracy    <       6.14584453 Ry

     total magnetization       =    -0.01 Bohr mag/cell
     absolute magnetization    =     0.03 Bohr mag/cell

     iteration #  6     ecut=    90.00 Ry     beta= 0.20
     Davidson diagonalization with overlap
     ethr =  4.96E-03,  avg # of iterations =  1.3

     negative rho (up, down):  1.819E-03 1.814E-03

     total cpu time spent up to now is      502.5 secs

     total energy              =   -1895.42786822 Ry
     estimated scf accuracy    <       2.61261788 Ry

     total magnetization       =     0.01 Bohr mag/cell
     absolute magnetization    =     0.03 Bohr mag/cell

     iteration #  7     ecut=    90.00 Ry     beta= 0.20
     Davidson diagonalization with overlap
     ethr =  2.11E-03,  avg # of iterations =  1.7

     negative rho (up, down):  1.771E-03 1.764E-03

     total cpu time spent up to now is      552.5 secs

     total energy              =   -1895.28572724 Ry
     estimated scf accuracy    <       2.20434626 Ry

     total magnetization       =    -0.01 Bohr mag/cell
     absolute magnetization    =     0.03 Bohr mag/cell

     iteration #  8     ecut=    90.00 Ry     beta= 0.20
     Davidson diagonalization with overlap
     ethr =  1.78E-03,  avg # of iterations =  1.4

     negative rho (up, down):  1.728E-03 1.719E-03

     total cpu time spent up to now is      602.2 secs

     total energy              =   -1895.35320360 Ry
     estimated scf accuracy    <       0.16397242 Ry

     total magnetization       =    -0.00 Bohr mag/cell
     absolute magnetization    =     0.03 Bohr mag/cell

     iteration #  9     ecut=    90.00 Ry     beta= 0.20
     Davidson diagonalization with overlap
     ethr =  1.32E-04,  avg # of iterations =  6.3

     negative rho (up, down):  1.662E-03 1.653E-03

     total cpu time spent up to now is      678.6 secs

     total energy              =   -1895.37038023 Ry
     estimated scf accuracy    <       0.06119722 Ry

     total magnetization       =    -0.01 Bohr mag/cell
     absolute magnetization    =     0.02 Bohr mag/cell

     iteration # 10     ecut=    90.00 Ry     beta= 0.20
     Davidson diagonalization with overlap
     ethr =  4.94E-05,  avg # of iterations =  5.2

     negative rho (up, down):  1.641E-03 1.632E-03

     total cpu time spent up to now is      755.9 secs

     total energy              =   -1895.41598734 Ry
     estimated scf accuracy    <       0.90695087 Ry

     total magnetization       =    -0.01 Bohr mag/cell
     absolute magnetization    =     0.01 Bohr mag/cell

     iteration # 11     ecut=    90.00 Ry     beta= 0.20
     Davidson diagonalization with overlap
     ethr =  4.94E-05,  avg # of iterations =  1.0

     negative rho (up, down):  1.637E-03 1.627E-03

     total cpu time spent up to now is      803.3 secs

     total energy              =   -1895.34019456 Ry
     estimated scf accuracy    <       0.56866012 Ry

     total magnetization       =    -0.01 Bohr mag/cell
     absolute magnetization    =     0.01 Bohr mag/cell

     iteration # 12     ecut=    90.00 Ry     beta= 0.20
     Davidson diagonalization with overlap
     ethr =  4.94E-05,  avg # of iterations =  5.8

     negative rho (up, down):  1.634E-03 1.623E-03

     total cpu time spent up to now is      882.1 secs

     total energy              =   -1895.39768950 Ry
     estimated scf accuracy    <       0.17408096 Ry

     total magnetization       =    -0.01 Bohr mag/cell
     absolute magnetization    =     0.02 Bohr mag/cell

     iteration # 13     ecut=    90.00 Ry     beta= 0.20
     Davidson diagonalization with overlap
     ethr =  4.94E-05,  avg # of iterations =  1.2

     negative rho (up, down):  1.632E-03 1.620E-03

     total cpu time spent up to now is      930.3 secs

     total energy              =   -1895.41100183 Ry
     estimated scf accuracy    <       0.17281126 Ry

     total magnetization       =    -0.01 Bohr mag/cell
     absolute magnetization    =     0.02 Bohr mag/cell

     iteration # 14     ecut=    90.00 Ry     beta= 0.20
     Davidson diagonalization with overlap
     ethr =  4.94E-05,  avg # of iterations =  2.3

     negative rho (up, down):  1.634E-03 1.621E-03

     total cpu time spent up to now is      985.9 secs

     total energy              =   -1895.35899674 Ry
     estimated scf accuracy    <       0.58313251 Ry

     total magnetization       =    -0.02 Bohr mag/cell
     absolute magnetization    =     0.03 Bohr mag/cell

     iteration # 15     ecut=    90.00 Ry     beta= 0.20
     Davidson diagonalization with overlap
     ethr =  4.94E-05,  avg # of iterations =  4.3

     negative rho (up, down):  1.628E-03 1.615E-03

     total cpu time spent up to now is     1050.1 secs

     total energy              =   -1895.39145272 Ry
     estimated scf accuracy    <       0.01271390 Ry

     total magnetization       =    -0.01 Bohr mag/cell
     absolute magnetization    =     0.02 Bohr mag/cell

     iteration # 16     ecut=    90.00 Ry     beta= 0.20
     Davidson diagonalization with overlap
     ethr =  1.03E-05,  avg # of iterations =  3.3

     negative rho (up, down):  1.619E-03 1.606E-03

     total cpu time spent up to now is     1107.2 secs

     total energy              =   -1895.39245322 Ry
     estimated scf accuracy    <       0.00825385 Ry

     total magnetization       =    -0.01 Bohr mag/cell
     absolute magnetization    =     0.02 Bohr mag/cell

     iteration # 17     ecut=    90.00 Ry     beta= 0.20
     Davidson diagonalization with overlap
     ethr =  6.66E-06,  avg # of iterations =  1.2

     negative rho (up, down):  1.622E-03 1.607E-03

     total cpu time spent up to now is     1155.5 secs

     total energy              =   -1895.39226113 Ry
     estimated scf accuracy    <       0.00319762 Ry

     total magnetization       =    -0.01 Bohr mag/cell
     absolute magnetization    =     0.02 Bohr mag/cell

     iteration # 18     ecut=    90.00 Ry     beta= 0.20
     Davidson diagonalization with overlap
     ethr =  2.58E-06,  avg # of iterations =  3.3

     negative rho (up, down):  1.624E-03 1.608E-03

     total cpu time spent up to now is     1213.1 secs

     total energy              =   -1895.39249513 Ry
     estimated scf accuracy    <       0.00055430 Ry

     total magnetization       =    -0.02 Bohr mag/cell
     absolute magnetization    =     0.02 Bohr mag/cell

     iteration # 19     ecut=    90.00 Ry     beta= 0.20
     Davidson diagonalization with overlap
     ethr =  4.47E-07,  avg # of iterations =  4.4

     negative rho (up, down):  1.628E-03 1.611E-03

     total cpu time spent up to now is     1273.5 secs

     total energy              =   -1895.39248027 Ry
     estimated scf accuracy    <       0.00053545 Ry

     total magnetization       =    -0.02 Bohr mag/cell
     absolute magnetization    =     0.02 Bohr mag/cell

     iteration # 20     ecut=    90.00 Ry     beta= 0.20
     Davidson diagonalization with overlap
     ethr =  4.32E-07,  avg # of iterations =  1.0

     negative rho (up, down):  1.638E-03 1.617E-03

     total cpu time spent up to now is     1320.5 secs

     total energy              =   -1895.39250188 Ry
     estimated scf accuracy    <       0.00002624 Ry

     total magnetization       =    -0.02 Bohr mag/cell
     absolute magnetization    =     0.03 Bohr mag/cell

     iteration # 21     ecut=    90.00 Ry     beta= 0.20
     Davidson diagonalization with overlap
     ethr =  2.12E-08,  avg # of iterations =  5.8

     negative rho (up, down):  1.636E-03 1.615E-03

     total cpu time spent up to now is     1395.0 secs

     total energy              =   -1895.39250490 Ry
     estimated scf accuracy    <       0.00005115 Ry

     total magnetization       =    -0.03 Bohr mag/cell
     absolute magnetization    =     0.03 Bohr mag/cell

     iteration # 22     ecut=    90.00 Ry     beta= 0.20
     Davidson diagonalization with overlap
     ethr =  2.12E-08,  avg # of iterations =  1.0

     negative rho (up, down):  1.637E-03 1.615E-03

     total cpu time spent up to now is     1442.1 secs

     total energy              =   -1895.39250539 Ry
     estimated scf accuracy    <       0.00003605 Ry

     total magnetization       =    -0.03 Bohr mag/cell
     absolute magnetization    =     0.03 Bohr mag/cell

     iteration # 23     ecut=    90.00 Ry     beta= 0.20
     Davidson diagonalization with overlap
     ethr =  2.12E-08,  avg # of iterations =  1.0

     negative rho (up, down):  1.638E-03 1.615E-03

     total cpu time spent up to now is     1489.0 secs

     total energy              =   -1895.39250608 Ry
     estimated scf accuracy    <       0.00000840 Ry

     total magnetization       =    -0.03 Bohr mag/cell
     absolute magnetization    =     0.03 Bohr mag/cell

     iteration # 24     ecut=    90.00 Ry     beta= 0.20
     Davidson diagonalization with overlap
     ethr =  6.78E-09,  avg # of iterations =  1.8

     negative rho (up, down):  1.639E-03 1.614E-03

     total cpu time spent up to now is     1540.7 secs

     total energy              =   -1895.39250600 Ry
     estimated scf accuracy    <       0.00000342 Ry

     total magnetization       =    -0.03 Bohr mag/cell
     absolute magnetization    =     0.03 Bohr mag/cell

     iteration # 25     ecut=    90.00 Ry     beta= 0.20
     Davidson diagonalization with overlap
     ethr =  2.75E-09,  avg # of iterations =  4.9

     negative rho (up, down):  1.641E-03 1.614E-03

     total cpu time spent up to now is     1604.7 secs

     total energy              =   -1895.39250612 Ry
     estimated scf accuracy    <       0.00000926 Ry

     total magnetization       =    -0.03 Bohr mag/cell
     absolute magnetization    =     0.03 Bohr mag/cell

     iteration # 26     ecut=    90.00 Ry     beta= 0.20
     Davidson diagonalization with overlap
     ethr =  2.75E-09,  avg # of iterations =  1.5

     negative rho (up, down):  1.642E-03 1.614E-03

     total cpu time spent up to now is     1655.0 secs

     total energy              =   -1895.39250655 Ry
     estimated scf accuracy    <       0.00000383 Ry

     total magnetization       =    -0.03 Bohr mag/cell
     absolute magnetization    =     0.04 Bohr mag/cell

     iteration # 27     ecut=    90.00 Ry     beta= 0.20
     Davidson diagonalization with overlap
     ethr =  2.75E-09,  avg # of iterations =  1.4

     negative rho (up, down):  1.642E-03 1.613E-03

     total cpu time spent up to now is     1704.2 secs

     total energy              =   -1895.39250662 Ry
     estimated scf accuracy    <       0.00000194 Ry

     total magnetization       =    -0.04 Bohr mag/cell
     absolute magnetization    =     0.04 Bohr mag/cell

     iteration # 28     ecut=    90.00 Ry     beta= 0.20
     Davidson diagonalization with overlap
     ethr =  1.57E-09,  avg # of iterations =  1.5

     negative rho (up, down):  1.642E-03 1.613E-03

     total cpu time spent up to now is     1754.0 secs

     total energy              =   -1895.39250664 Ry
     estimated scf accuracy    <       0.00000293 Ry

     total magnetization       =    -0.04 Bohr mag/cell
     absolute magnetization    =     0.04 Bohr mag/cell

     iteration # 29     ecut=    90.00 Ry     beta= 0.20
     Davidson diagonalization with overlap
     ethr =  1.57E-09,  avg # of iterations =  1.0

     negative rho (up, down):  1.643E-03 1.612E-03

     total cpu time spent up to now is     1801.2 secs

     total energy              =   -1895.39250686 Ry
     estimated scf accuracy    <       0.00000178 Ry

     total magnetization       =    -0.04 Bohr mag/cell
     absolute magnetization    =     0.04 Bohr mag/cell

     iteration # 30     ecut=    90.00 Ry     beta= 0.20
     Davidson diagonalization with overlap
     ethr =  1.44E-09,  avg # of iterations =  1.0

     negative rho (up, down):  1.642E-03 1.614E-03

     total cpu time spent up to now is     1848.2 secs

     total energy              =   -1895.39250669 Ry
     estimated scf accuracy    <       0.00000070 Ry

     total magnetization       =    -0.04 Bohr mag/cell
     absolute magnetization    =     0.04 Bohr mag/cell

     iteration # 31     ecut=    90.00 Ry     beta= 0.20
     Davidson diagonalization with overlap
     ethr =  5.68E-10,  avg # of iterations =  1.3

     negative rho (up, down):  1.637E-03 1.618E-03

     total cpu time spent up to now is     1896.7 secs

     total energy              =   -1895.39250542 Ry
     estimated scf accuracy    <       0.00000158 Ry

     total magnetization       =    -0.04 Bohr mag/cell
     absolute magnetization    =     0.04 Bohr mag/cell

     iteration # 32     ecut=    90.00 Ry     beta= 0.20
     Davidson diagonalization with overlap
     ethr =  5.68E-10,  avg # of iterations =  3.8

     negative rho (up, down):  1.636E-03 1.619E-03

     total cpu time spent up to now is     1958.4 secs

     total energy              =   -1895.39250575 Ry
     estimated scf accuracy    <       0.00000089 Ry

     total magnetization       =    -0.02 Bohr mag/cell
     absolute magnetization    =     0.03 Bohr mag/cell

     iteration # 33     ecut=    90.00 Ry     beta= 0.20
     Davidson diagonalization with overlap
     ethr =  5.68E-10,  avg # of iterations =  2.7

     negative rho (up, down):  1.631E-03 1.626E-03

     total cpu time spent up to now is     2013.0 secs

     total energy              =   -1895.39250447 Ry
     estimated scf accuracy    <       0.00000037 Ry

     total magnetization       =    -0.02 Bohr mag/cell
     absolute magnetization    =     0.02 Bohr mag/cell

     iteration # 34     ecut=    90.00 Ry     beta= 0.20
     Davidson diagonalization with overlap
     ethr =  2.99E-10,  avg # of iterations =  5.4

     negative rho (up, down):  1.631E-03 1.625E-03

     total cpu time spent up to now is     2089.8 secs

     total energy              =   -1895.39250533 Ry
     estimated scf accuracy    <       0.00000110 Ry

     total magnetization       =    -0.00 Bohr mag/cell
     absolute magnetization    =     0.01 Bohr mag/cell

     iteration # 35     ecut=    90.00 Ry     beta= 0.20
     Davidson diagonalization with overlap
     ethr =  2.99E-10,  avg # of iterations =  1.5

     negative rho (up, down):  1.629E-03 1.627E-03

     total cpu time spent up to now is     2140.2 secs

     total energy              =   -1895.39250530 Ry
     estimated scf accuracy    <       0.00000035 Ry

     total magnetization       =    -0.00 Bohr mag/cell
     absolute magnetization    =     0.01 Bohr mag/cell

     iteration # 36     ecut=    90.00 Ry     beta= 0.20
     Davidson diagonalization with overlap
     ethr =  2.82E-10,  avg # of iterations =  1.8

     negative rho (up, down):  1.629E-03 1.627E-03

     total cpu time spent up to now is     2192.2 secs

     total energy              =   -1895.39250534 Ry
     estimated scf accuracy    <       0.00000053 Ry

     total magnetization       =    -0.00 Bohr mag/cell
     absolute magnetization    =     0.01 Bohr mag/cell

     iteration # 37     ecut=    90.00 Ry     beta= 0.20
     Davidson diagonalization with overlap
     ethr =  2.82E-10,  avg # of iterations =  1.1

     negative rho (up, down):  1.629E-03 1.627E-03

     total cpu time spent up to now is     2240.1 secs

     total energy              =   -1895.39250535 Ry
     estimated scf accuracy    <       0.00000039 Ry

     total magnetization       =     0.00 Bohr mag/cell
     absolute magnetization    =     0.01 Bohr mag/cell

     iteration # 38     ecut=    90.00 Ry     beta= 0.20
     Davidson diagonalization with overlap
     ethr =  2.82E-10,  avg # of iterations =  1.2

     negative rho (up, down):  1.628E-03 1.628E-03

     total cpu time spent up to now is     2288.3 secs

     total energy              =   -1895.39250537 Ry
     estimated scf accuracy    <       0.00000010 Ry

     total magnetization       =     0.00 Bohr mag/cell
     absolute magnetization    =     0.01 Bohr mag/cell

     iteration # 39     ecut=    90.00 Ry     beta= 0.20
     Davidson diagonalization with overlap
     ethr =  8.20E-11,  avg # of iterations =  3.2

     negative rho (up, down):  1.628E-03 1.628E-03

     total cpu time spent up to now is     2344.4 secs

     total energy              =   -1895.39250537 Ry
     estimated scf accuracy    <       0.00000010 Ry

     total magnetization       =     0.00 Bohr mag/cell
     absolute magnetization    =     0.01 Bohr mag/cell

     iteration # 40     ecut=    90.00 Ry     beta= 0.20
     Davidson diagonalization with overlap
     ethr =  8.20E-11,  avg # of iterations =  3.4

     negative rho (up, down):  1.628E-03 1.628E-03

     total cpu time spent up to now is     2400.8 secs

     total energy              =   -1895.39250538 Ry
     estimated scf accuracy    <       0.00000010 Ry

     total magnetization       =     0.00 Bohr mag/cell
     absolute magnetization    =     0.01 Bohr mag/cell

     iteration # 41     ecut=    90.00 Ry     beta= 0.20
     Davidson diagonalization with overlap
     ethr =  8.18E-11,  avg # of iterations =  1.0

     negative rho (up, down):  1.628E-03 1.628E-03

     total cpu time spent up to now is     2447.8 secs

     total energy              =   -1895.39250539 Ry
     estimated scf accuracy    <       0.00000006 Ry

     total magnetization       =     0.00 Bohr mag/cell
     absolute magnetization    =     0.01 Bohr mag/cell

     iteration # 42     ecut=    90.00 Ry     beta= 0.20
     Davidson diagonalization with overlap
     ethr =  4.65E-11,  avg # of iterations =  1.6

     negative rho (up, down):  1.628E-03 1.628E-03

     total cpu time spent up to now is     2497.8 secs

     total energy              =   -1895.39250539 Ry
     estimated scf accuracy    <       0.00000003 Ry

     total magnetization       =     0.00 Bohr mag/cell
     absolute magnetization    =     0.01 Bohr mag/cell

     iteration # 43     ecut=    90.00 Ry     beta= 0.20
     Davidson diagonalization with overlap
     ethr =  2.17E-11,  avg # of iterations =  3.7

     negative rho (up, down):  1.628E-03 1.628E-03

     total cpu time spent up to now is     2555.3 secs

     total energy              =   -1895.39250539 Ry
     estimated scf accuracy    <       0.00000004 Ry

     total magnetization       =     0.00 Bohr mag/cell
     absolute magnetization    =     0.01 Bohr mag/cell

     iteration # 44     ecut=    90.00 Ry     beta= 0.20
     Davidson diagonalization with overlap
     ethr =  2.17E-11,  avg # of iterations =  3.5

     negative rho (up, down):  1.628E-03 1.628E-03

     total cpu time spent up to now is     2617.9 secs

     total energy              =   -1895.39250542 Ry
     estimated scf accuracy    <       0.00000001 Ry

     total magnetization       =     0.00 Bohr mag/cell
     absolute magnetization    =     0.00 Bohr mag/cell

     iteration # 45     ecut=    90.00 Ry     beta= 0.20
     Davidson diagonalization with overlap
     ethr =  8.96E-12,  avg # of iterations =  4.0

     negative rho (up, down):  1.628E-03 1.628E-03

     total cpu time spent up to now is     2678.1 secs

     total energy              =   -1895.39250542 Ry
     estimated scf accuracy    <       0.00000001 Ry

     total magnetization       =     0.00 Bohr mag/cell
     absolute magnetization    =     0.00 Bohr mag/cell

     iteration # 46     ecut=    90.00 Ry     beta= 0.20
     Davidson diagonalization with overlap
     ethr =  8.96E-12,  avg # of iterations =  2.1

     negative rho (up, down):  1.628E-03 1.628E-03

     total cpu time spent up to now is     2732.9 secs

     total energy              =   -1895.39250542 Ry
     estimated scf accuracy    <       0.00000001 Ry

     total magnetization       =     0.00 Bohr mag/cell
     absolute magnetization    =     0.00 Bohr mag/cell

     iteration # 47     ecut=    90.00 Ry     beta= 0.20
     Davidson diagonalization with overlap
     ethr =  8.96E-12,  avg # of iterations =  1.2

     negative rho (up, down):  1.628E-03 1.628E-03

     Magnetic moment per site:
     atom:    1    charge:   11.7753    magn:   -0.0001    constr:    0.0000
     atom:    2    charge:   15.3050    magn:   -0.0005    constr:    0.0000
     atom:    3    charge:   11.7753    magn:   -0.0005    constr:    0.0000
     atom:    4    charge:   15.3050    magn:    0.0008    constr:    0.0000
     atom:    5    charge:   11.7753    magn:    0.0007    constr:    0.0000
     atom:    6    charge:   15.3050    magn:   -0.0002    constr:    0.0000
     atom:    7    charge:   11.7753    magn:   -0.0006    constr:    0.0000
     atom:    8    charge:   15.3050    magn:    0.0009    constr:    0.0000

     total cpu time spent up to now is     2780.6 secs

     End of self-consistent calculation

     Number of k-points >= 100: set verbosity='high' to print the bands.

     the Fermi energy is    17.3534 ev

!    total energy              =   -1895.39250542 Ry
     estimated scf accuracy    <          5.5E-09 Ry
     smearing contrib. (-TS)   =      -0.01114716 Ry
     internal energy E=F+TS    =   -1895.38135827 Ry

     The total energy is F=E-TS. E is the sum of the following terms:
     one-electron contribution =    -969.89917435 Ry
     hartree contribution      =     552.74622491 Ry
     xc contribution           =    -220.25437009 Ry
     ewald contribution        =   -1257.97403874 Ry

     total magnetization       =     0.00 Bohr mag/cell
     absolute magnetization    =     0.00 Bohr mag/cell

     convergence has been achieved in  47 iterations

     negative rho (up, down):  1.628E-03 1.628E-03

     Forces acting on atoms (cartesian axes, Ry/au):

     atom    1 type  1   force =     0.00016730    0.00011296    0.00021602
     atom    2 type  2   force =     0.00029083   -0.00012390   -0.00079853
     atom    3 type  1   force =     0.00016732    0.00011329    0.00021641
     atom    4 type  2   force =     0.00029075   -0.00012483   -0.00079868
     atom    5 type  1   force =    -0.00005843   -0.00006554    0.00015263
     atom    6 type  2   force =    -0.00039946    0.00007688    0.00042998
     atom    7 type  1   force =    -0.00005871   -0.00006601    0.00015280
     atom    8 type  2   force =    -0.00039961    0.00007717    0.00042936

     Total force =     0.001553     Total SCF correction =     0.000010


     Computing stress (Cartesian axis) and pressure


     negative rho (up, down):  1.628E-03 1.628E-03
          total   stress  (Ry/bohr**3)                   (kbar)     P=        0.13
   0.00000100   0.00000001   0.00000002            0.15        0.00        0.00
   0.00000001   0.00000098  -0.00001193            0.00        0.14       -1.75
   0.00000002  -0.00001193   0.00000072            0.00       -1.75        0.11

     Energy error            =      3.6E-01
     Gradient error          =      8.0E-04

     number of scf cycles    =   5
     number of bfgs steps    =   2

     energy   old            =   -1895.7552250888 Ry
     energy   new            =   -1895.3925054223 Ry

     CASE: energy  _new > energy  _old

     new trust radius        =       0.0004439272 bohr
     new conv_thr            =       0.0000000100 Ry


ATOMIC_POSITIONS (angstrom)
Cr            0.6178231186        2.0325962893       -1.1943392582
Co            2.7268712889        0.3758047206        2.3315757978
Cr            0.4254700444       -0.4547731824        2.2275497063
Co            1.8960450817        2.7254927013        1.0562048228
Cr            1.7000340049        0.4383197759        0.0079420901
Co           -0.4186528757        1.8804902693        1.0799890002
Cr            2.7789813363        2.6322962978        3.3338132304
Co           -0.6232726937       -0.4234232810        0.0336284620



     Writing output data file ./pwscf.save/
     NEW-OLD atomic charge density approx. for the potential

     Check: negative core charge=   -0.000010

     negative rho (up, down):  1.976E-02 1.976E-02
     Generating pointlists ...
     new r_m :   0.2012 (alat units)  1.7545 (a.u.) for type    1

     total cpu time spent up to now is     2813.3 secs

     Self-consistent Calculation

     iteration #  1     ecut=    90.00 Ry     beta= 0.20
     Davidson diagonalization with overlap
     c_bands:  1 eigenvalues not converged
     c_bands:  5 eigenvalues not converged
     c_bands:  5 eigenvalues not converged
     c_bands:  4 eigenvalues not converged
     c_bands:  4 eigenvalues not converged
     c_bands:  3 eigenvalues not converged
     c_bands:  4 eigenvalues not converged
     c_bands:  4 eigenvalues not converged
     c_bands:  5 eigenvalues not converged
     c_bands:  1 eigenvalues not converged
     c_bands:  3 eigenvalues not converged
     c_bands:  3 eigenvalues not converged
     c_bands:  5 eigenvalues not converged
     c_bands:  5 eigenvalues not converged
     c_bands:  5 eigenvalues not converged
     c_bands:  3 eigenvalues not converged
     c_bands:  4 eigenvalues not converged
     c_bands:  2 eigenvalues not converged
     c_bands:  2 eigenvalues not converged
     c_bands:  2 eigenvalues not converged
     c_bands:  5 eigenvalues not converged
     c_bands:  3 eigenvalues not converged
     c_bands:  2 eigenvalues not converged
     c_bands:  3 eigenvalues not converged
     c_bands:  3 eigenvalues not converged
     c_bands:  5 eigenvalues not converged
     c_bands:  3 eigenvalues not converged
     c_bands:  1 eigenvalues not converged
     c_bands:  3 eigenvalues not converged
     c_bands:  5 eigenvalues not converged
     c_bands:  5 eigenvalues not converged
     c_bands:  1 eigenvalues not converged
     ethr =  1.00E-06,  avg # of iterations = 26.4

     negative rho (up, down):  8.287E-03 8.287E-03

     total cpu time spent up to now is     3307.0 secs

     total energy              =   -1892.58724590 Ry
     estimated scf accuracy    <      10.19595045 Ry

     total magnetization       =    -0.00 Bohr mag/cell
     absolute magnetization    =     0.00 Bohr mag/cell

     iteration #  2     ecut=    90.00 Ry     beta= 0.20
     Davidson diagonalization with overlap
     ethr =  8.22E-03,  avg # of iterations =  4.0

     negative rho (up, down):  6.837E-03 6.838E-03

     total cpu time spent up to now is     3377.0 secs

     total energy              =   -1895.04455725 Ry
     estimated scf accuracy    <      35.34207953 Ry

     total magnetization       =    -0.00 Bohr mag/cell
     absolute magnetization    =     0.00 Bohr mag/cell

     iteration #  3     ecut=    90.00 Ry     beta= 0.20
     Davidson diagonalization with overlap
     ethr =  8.22E-03,  avg # of iterations =  1.1

     negative rho (up, down):  6.246E-03 6.246E-03

     total cpu time spent up to now is     3425.0 secs

     total energy              =   -1895.75825083 Ry
     estimated scf accuracy    <       8.01970255 Ry

     total magnetization       =     0.00 Bohr mag/cell
     absolute magnetization    =     0.00 Bohr mag/cell

     iteration #  4     ecut=    90.00 Ry     beta= 0.20
     Davidson diagonalization with overlap
     ethr =  6.47E-03,  avg # of iterations =  1.0

     negative rho (up, down):  5.470E-03 5.470E-03

     total cpu time spent up to now is     3471.7 secs

     total energy              =   -1895.70374787 Ry
     estimated scf accuracy    <       4.93177452 Ry

     total magnetization       =    -0.00 Bohr mag/cell
     absolute magnetization    =     0.00 Bohr mag/cell

     iteration #  5     ecut=    90.00 Ry     beta= 0.20
     Davidson diagonalization with overlap
     ethr =  3.98E-03,  avg # of iterations =  1.0

     negative rho (up, down):  2.406E-03 2.406E-03

     total cpu time spent up to now is     3518.5 secs

     total energy              =   -1895.35093312 Ry
     estimated scf accuracy    <       2.58768175 Ry

     total magnetization       =    -0.00 Bohr mag/cell
     absolute magnetization    =     0.00 Bohr mag/cell

     iteration #  6     ecut=    90.00 Ry     beta= 0.20
     Davidson diagonalization with overlap
     ethr =  2.09E-03,  avg # of iterations =  2.2

     negative rho (up, down):  1.991E-03 1.991E-03

     total cpu time spent up to now is     3573.9 secs

     total energy              =   -1896.18370763 Ry
     estimated scf accuracy    <      12.54569127 Ry

     total magnetization       =    -0.00 Bohr mag/cell
     absolute magnetization    =     0.01 Bohr mag/cell

     iteration #  7     ecut=    90.00 Ry     beta= 0.20
     Davidson diagonalization with overlap
     ethr =  2.09E-03,  avg # of iterations =  1.1

     negative rho (up, down):  1.882E-03 1.882E-03

     total cpu time spent up to now is     3621.4 secs

     total energy              =   -1895.84266346 Ry
     estimated scf accuracy    <      24.51525715 Ry

     total magnetization       =     0.00 Bohr mag/cell
     absolute magnetization    =     0.01 Bohr mag/cell

     iteration #  8     ecut=    90.00 Ry     beta= 0.20
     Davidson diagonalization with overlap
     ethr =  2.09E-03,  avg # of iterations =  1.0

     negative rho (up, down):  1.755E-03 1.755E-03

     total cpu time spent up to now is     3668.5 secs

     total energy              =   -1895.50077273 Ry
     estimated scf accuracy    <       9.80228724 Ry

     total magnetization       =    -0.00 Bohr mag/cell
     absolute magnetization    =     0.01 Bohr mag/cell

     iteration #  9     ecut=    90.00 Ry     beta= 0.20
     Davidson diagonalization with overlap
     ethr =  2.09E-03,  avg # of iterations =  1.0

     negative rho (up, down):  1.743E-03 1.743E-03

     total cpu time spent up to now is     3715.4 secs

     total energy              =   -1895.68468720 Ry
     estimated scf accuracy    <       0.72435907 Ry

     total magnetization       =    -0.00 Bohr mag/cell
     absolute magnetization    =     0.00 Bohr mag/cell

     iteration # 10     ecut=    90.00 Ry     beta= 0.20
     Davidson diagonalization with overlap
     ethr =  5.84E-04,  avg # of iterations =  1.1

     negative rho (up, down):  1.731E-03 1.731E-03

     total cpu time spent up to now is     3762.9 secs

     total energy              =   -1895.72385965 Ry
     estimated scf accuracy    <       0.03477927 Ry

     total magnetization       =    -0.00 Bohr mag/cell
     absolute magnetization    =     0.00 Bohr mag/cell

     iteration # 11     ecut=    90.00 Ry     beta= 0.20
     Davidson diagonalization with overlap
     ethr =  2.80E-05,  avg # of iterations =  6.9

     negative rho (up, down):  1.749E-03 1.749E-03

     total cpu time spent up to now is     3846.7 secs

     total energy              =   -1895.74733001 Ry
     estimated scf accuracy    <       0.27563628 Ry

     total magnetization       =    -0.00 Bohr mag/cell
     absolute magnetization    =     0.00 Bohr mag/cell

     iteration # 12     ecut=    90.00 Ry     beta= 0.20
     Davidson diagonalization with overlap
     ethr =  2.80E-05,  avg # of iterations =  1.1

     negative rho (up, down):  1.777E-03 1.777E-03

     total cpu time spent up to now is     3894.3 secs

     total energy              =   -1895.74463127 Ry
     estimated scf accuracy    <       0.30396190 Ry

     total magnetization       =    -0.00 Bohr mag/cell
     absolute magnetization    =     0.00 Bohr mag/cell

     iteration # 13     ecut=    90.00 Ry     beta= 0.20
     Davidson diagonalization with overlap
     ethr =  2.80E-05,  avg # of iterations =  2.0

     negative rho (up, down):  1.776E-03 1.776E-03

     total cpu time spent up to now is     3949.9 secs

     total energy              =   -1895.75127943 Ry
     estimated scf accuracy    <       0.02005900 Ry

     total magnetization       =    -0.00 Bohr mag/cell
     absolute magnetization    =     0.00 Bohr mag/cell

     iteration # 14     ecut=    90.00 Ry     beta= 0.20
     Davidson diagonalization with overlap
     ethr =  1.62E-05,  avg # of iterations =  1.3

     negative rho (up, down):  1.782E-03 1.782E-03

     total cpu time spent up to now is     3998.4 secs

     total energy              =   -1895.75405896 Ry
     estimated scf accuracy    <       0.03099841 Ry

     total magnetization       =    -0.00 Bohr mag/cell
     absolute magnetization    =     0.00 Bohr mag/cell

     iteration # 15     ecut=    90.00 Ry     beta= 0.20
     Davidson diagonalization with overlap
     ethr =  1.62E-05,  avg # of iterations =  1.0

     negative rho (up, down):  1.791E-03 1.791E-03

     total cpu time spent up to now is     4045.5 secs

     total energy              =   -1895.75459479 Ry
     estimated scf accuracy    <       0.01525834 Ry

     total magnetization       =    -0.00 Bohr mag/cell
     absolute magnetization    =     0.00 Bohr mag/cell

     iteration # 16     ecut=    90.00 Ry     beta= 0.20
     Davidson diagonalization with overlap
     ethr =  1.23E-05,  avg # of iterations =  1.1

     negative rho (up, down):  1.793E-03 1.793E-03

     total cpu time spent up to now is     4093.0 secs

     total energy              =   -1895.75527754 Ry
     estimated scf accuracy    <       0.00152004 Ry

     total magnetization       =    -0.00 Bohr mag/cell
     absolute magnetization    =     0.00 Bohr mag/cell

     iteration # 17     ecut=    90.00 Ry     beta= 0.20
     Davidson diagonalization with overlap
     ethr =  1.23E-06,  avg # of iterations =  3.4

     negative rho (up, down):  1.795E-03 1.795E-03

     total cpu time spent up to now is     4152.2 secs

     total energy              =   -1895.75543128 Ry
     estimated scf accuracy    <       0.00266966 Ry

     total magnetization       =    -0.00 Bohr mag/cell
     absolute magnetization    =     0.00 Bohr mag/cell

     iteration # 18     ecut=    90.00 Ry     beta= 0.20
     Davidson diagonalization with overlap
     ethr =  1.23E-06,  avg # of iterations =  1.0

     negative rho (up, down):  1.795E-03 1.795E-03

     total cpu time spent up to now is     4199.3 secs

     total energy              =   -1895.75549387 Ry
     estimated scf accuracy    <       0.00042138 Ry

     total magnetization       =    -0.00 Bohr mag/cell
     absolute magnetization    =     0.00 Bohr mag/cell

     iteration # 19     ecut=    90.00 Ry     beta= 0.20
     Davidson diagonalization with overlap
     ethr =  3.40E-07,  avg # of iterations =  2.2

     negative rho (up, down):  1.796E-03 1.796E-03

     total cpu time spent up to now is     4253.3 secs

     total energy              =   -1895.75551568 Ry
     estimated scf accuracy    <       0.00068431 Ry

     total magnetization       =    -0.00 Bohr mag/cell
     absolute magnetization    =     0.00 Bohr mag/cell

     iteration # 20     ecut=    90.00 Ry     beta= 0.20
     Davidson diagonalization with overlap
     ethr =  3.40E-07,  avg # of iterations =  1.0

     negative rho (up, down):  1.796E-03 1.796E-03

     total cpu time spent up to now is     4300.6 secs

     total energy              =   -1895.75553327 Ry
     estimated scf accuracy    <       0.00008483 Ry

     total magnetization       =    -0.00 Bohr mag/cell
     absolute magnetization    =     0.00 Bohr mag/cell

     iteration # 21     ecut=    90.00 Ry     beta= 0.20
     Davidson diagonalization with overlap
     ethr =  6.84E-08,  avg # of iterations =  1.9

     negative rho (up, down):  1.796E-03 1.796E-03

     total cpu time spent up to now is     4353.5 secs

     total energy              =   -1895.75553363 Ry
     estimated scf accuracy    <       0.00006000 Ry

     total magnetization       =    -0.00 Bohr mag/cell
     absolute magnetization    =     0.00 Bohr mag/cell

     iteration # 22     ecut=    90.00 Ry     beta= 0.20
     Davidson diagonalization with overlap
     ethr =  4.84E-08,  avg # of iterations =  1.2

     negative rho (up, down):  1.796E-03 1.796E-03

     total cpu time spent up to now is     4401.4 secs

     total energy              =   -1895.75553501 Ry
     estimated scf accuracy    <       0.00000733 Ry

     total magnetization       =    -0.00 Bohr mag/cell
     absolute magnetization    =     0.00 Bohr mag/cell

     iteration # 23     ecut=    90.00 Ry     beta= 0.20
     Davidson diagonalization with overlap
     ethr =  5.91E-09,  avg # of iterations =  4.5

     negative rho (up, down):  1.796E-03 1.796E-03

     total cpu time spent up to now is     4467.2 secs

     total energy              =   -1895.75553668 Ry
     estimated scf accuracy    <       0.00001359 Ry

     total magnetization       =    -0.00 Bohr mag/cell
     absolute magnetization    =     0.00 Bohr mag/cell

     iteration # 24     ecut=    90.00 Ry     beta= 0.20
     Davidson diagonalization with overlap
     ethr =  5.91E-09,  avg # of iterations =  1.2

     negative rho (up, down):  1.796E-03 1.796E-03

     total cpu time spent up to now is     4515.6 secs

     total energy              =   -1895.75553730 Ry
     estimated scf accuracy    <       0.00000259 Ry

     total magnetization       =    -0.00 Bohr mag/cell
     absolute magnetization    =     0.00 Bohr mag/cell

     iteration # 25     ecut=    90.00 Ry     beta= 0.20
     Davidson diagonalization with overlap
     ethr =  2.09E-09,  avg # of iterations =  2.2

     negative rho (up, down):  1.796E-03 1.796E-03

     total cpu time spent up to now is     4571.7 secs

     total energy              =   -1895.75553747 Ry
     estimated scf accuracy    <       0.00000506 Ry

     total magnetization       =    -0.00 Bohr mag/cell
     absolute magnetization    =     0.00 Bohr mag/cell

     iteration # 26     ecut=    90.00 Ry     beta= 0.20
     Davidson diagonalization with overlap
     ethr =  2.09E-09,  avg # of iterations =  1.0

     negative rho (up, down):  1.796E-03 1.796E-03

     total cpu time spent up to now is     4618.7 secs

     total energy              =   -1895.75553759 Ry
     estimated scf accuracy    <       0.00000041 Ry

     total magnetization       =    -0.00 Bohr mag/cell
     absolute magnetization    =     0.00 Bohr mag/cell

     iteration # 27     ecut=    90.00 Ry     beta= 0.20
     Davidson diagonalization with overlap
     ethr =  3.28E-10,  avg # of iterations =  2.9

     negative rho (up, down):  1.796E-03 1.796E-03

     total cpu time spent up to now is     4676.0 secs

     total energy              =   -1895.75553760 Ry
     estimated scf accuracy    <       0.00000118 Ry

     total magnetization       =    -0.00 Bohr mag/cell
     absolute magnetization    =     0.00 Bohr mag/cell

     iteration # 28     ecut=    90.00 Ry     beta= 0.20
     Davidson diagonalization with overlap
     ethr =  3.28E-10,  avg # of iterations =  1.0

     negative rho (up, down):  1.796E-03 1.796E-03

     total cpu time spent up to now is     4723.4 secs

     total energy              =   -1895.75553765 Ry
     estimated scf accuracy    <       0.00000011 Ry

     total magnetization       =    -0.00 Bohr mag/cell
     absolute magnetization    =     0.00 Bohr mag/cell

     iteration # 29     ecut=    90.00 Ry     beta= 0.20
     Davidson diagonalization with overlap
     ethr =  8.91E-11,  avg # of iterations =  2.5

     negative rho (up, down):  1.796E-03 1.796E-03

     total cpu time spent up to now is     4779.4 secs

     total energy              =   -1895.75553764 Ry
     estimated scf accuracy    <       0.00000037 Ry

     total magnetization       =    -0.00 Bohr mag/cell
     absolute magnetization    =     0.00 Bohr mag/cell

     iteration # 30     ecut=    90.00 Ry     beta= 0.20
     Davidson diagonalization with overlap
     ethr =  8.91E-11,  avg # of iterations =  1.1

     negative rho (up, down):  1.796E-03 1.796E-03

     total cpu time spent up to now is     4827.5 secs

     total energy              =   -1895.75553765 Ry
     estimated scf accuracy    <       0.00000017 Ry

     total magnetization       =    -0.00 Bohr mag/cell
     absolute magnetization    =     0.00 Bohr mag/cell

     iteration # 31     ecut=    90.00 Ry     beta= 0.20
     Davidson diagonalization with overlap
     ethr =  8.91E-11,  avg # of iterations =  1.0

     negative rho (up, down):  1.796E-03 1.796E-03

     total cpu time spent up to now is     4874.5 secs

     total energy              =   -1895.75553765 Ry
     estimated scf accuracy    <       0.00000002 Ry

     total magnetization       =    -0.00 Bohr mag/cell
     absolute magnetization    =     0.00 Bohr mag/cell

     iteration # 32     ecut=    90.00 Ry     beta= 0.20
     Davidson diagonalization with overlap
     ethr =  1.35E-11,  avg # of iterations =  2.3

     negative rho (up, down):  1.796E-03 1.796E-03

     total cpu time spent up to now is     4930.4 secs

     total energy              =   -1895.75553765 Ry
     estimated scf accuracy    <       0.00000004 Ry

     total magnetization       =    -0.00 Bohr mag/cell
     absolute magnetization    =     0.00 Bohr mag/cell

     iteration # 33     ecut=    90.00 Ry     beta= 0.20
     Davidson diagonalization with overlap
     ethr =  1.35E-11,  avg # of iterations =  1.2

     negative rho (up, down):  1.796E-03 1.796E-03

     Magnetic moment per site:
     atom:    1    charge:   11.6628    magn:    0.0001    constr:    0.0000
     atom:    2    charge:   15.1560    magn:   -0.0003    constr:    0.0000
     atom:    3    charge:   11.5803    magn:   -0.0006    constr:    0.0000
     atom:    4    charge:   15.1722    magn:   -0.0003    constr:    0.0000
     atom:    5    charge:   11.5951    magn:    0.0006    constr:    0.0000
     atom:    6    charge:   15.1346    magn:   -0.0001    constr:    0.0000
     atom:    7    charge:   11.6225    magn:   -0.0003    constr:    0.0000
     atom:    8    charge:   15.1574    magn:    0.0006    constr:    0.0000

     total cpu time spent up to now is     4978.7 secs

     End of self-consistent calculation

     Number of k-points >= 100: set verbosity='high' to print the bands.

     the Fermi energy is    16.9479 ev

!    total energy              =   -1895.75553765 Ry
     estimated scf accuracy    <          9.0E-09 Ry
     smearing contrib. (-TS)   =      -0.00810270 Ry
     internal energy E=F+TS    =   -1895.74743495 Ry

     The total energy is F=E-TS. E is the sum of the following terms:
     one-electron contribution =    -945.34981060 Ry
     hartree contribution      =     540.08426129 Ry
     xc contribution           =    -219.75849489 Ry
     ewald contribution        =   -1270.72339075 Ry

     total magnetization       =    -0.00 Bohr mag/cell
     absolute magnetization    =     0.00 Bohr mag/cell

     convergence has been achieved in  33 iterations

     negative rho (up, down):  1.796E-03 1.796E-03

     Forces acting on atoms (cartesian axes, Ry/au):

     atom    1 type  1   force =     0.00067751    0.00074423    0.00060232
     atom    2 type  2   force =     0.00242895   -0.00073340   -0.00117874
     atom    3 type  1   force =    -0.00193985   -0.00293357    0.00239125
     atom    4 type  2   force =     0.00231782    0.00472770   -0.00111711
     atom    5 type  1   force =    -0.00421713   -0.00173313    0.00074057
     atom    6 type  2   force =     0.00465798   -0.00127873    0.00017788
     atom    7 type  1   force =    -0.00014938    0.00029650   -0.00150551
     atom    8 type  2   force =    -0.00377591    0.00091040   -0.00011066

     Total force =     0.010883     Total SCF correction =     0.000258


     Computing stress (Cartesian axis) and pressure


     negative rho (up, down):  1.796E-03 1.796E-03
          total   stress  (Ry/bohr**3)                   (kbar)     P=     -177.12
  -0.00095984   0.00003865  -0.00000794         -141.20        5.69       -1.17
   0.00003865  -0.00141328  -0.00006411            5.69     -207.90       -9.43
  -0.00000794  -0.00006411  -0.00123899           -1.17       -9.43     -182.26

     Energy error            =      4.5E-03
     Gradient error          =      4.7E-03

     number of scf cycles    =  11
     number of bfgs steps    =   5

     energy   old            =   -1895.7600135191 Ry
     energy   new            =   -1895.7555376497 Ry

     CASE: energy  _new > energy  _old


 %%%%%%%%%%%%%%%%%%%%%%%%%%%%%%%%%%%%%%%%%%%%%%%%%%%%%%%%%%%%%%%%%%%%%%%%%%%%%%
     Error in routine bfgs (1):
     dE0s is positive which should never happen
 %%%%%%%%%%%%%%%%%%%%%%%%%%%%%%%%%%%%%%%%%%%%%%%%%%%%%%%%%%%%%%%%%%%%%%%%%%%%%%

     stopping ...
Abort(1) on node 0 (rank 0 in comm 0): application called MPI_Abort(MPI_COMM_WORLD, 1) - process 0
