
     Program PWSCF v.6.7MaX starts on 22Mar2022 at 10:47:30 

     This program is part of the open-source Quantum ESPRESSO suite
     for quantum simulation of materials; please cite
         "P. Giannozzi et al., J. Phys.:Condens. Matter 21 395502 (2009);
         "P. Giannozzi et al., J. Phys.:Condens. Matter 29 465901 (2017);
          URL http://www.quantum-espresso.org", 
     in publications or presentations arising from this work. More details at
     http://www.quantum-espresso.org/quote

     Parallel version (MPI), running on    24 processors

     MPI processes distributed on     1 nodes
     R & G space division:  proc/nbgrp/npool/nimage =      24
     Reading input from /home/kevin/QE_CoCrFeMnNi/CoCrFeMnNi/Opt/binary/Opt-B1-CoCr/Mix/elastic/Chg-6-B1-CoCr.in

     Current dimensions of program PWSCF are:
     Max number of different atomic species (ntypx) = 10
     Max number of k-points (npk) =  40000
     Max angular momentum in pseudopotentials (lmaxx) =  3

     Subspace diagonalization in iterative solution of the eigenvalue problem:
     a serial algorithm will be used

     Found symmetry operation: I + (  0.0000  0.5000 -0.5000)
     This is a supercell, fractional translations are disabled

     Parallelization info
     --------------------
     sticks:   dense  smooth     PW     G-vecs:    dense   smooth      PW
     Min         272      91     25                16558     3189     481
     Max         273      92     26                16561     3193     484
     Sum        6537    2185    617               397439    76581   11565



     bravais-lattice index     =            0
     lattice parameter (alat)  =       8.7200  a.u.
     unit-cell volume          =     663.0440 (a.u.)^3
     number of atoms/cell      =            8
     number of atomic types    =            2
     number of electrons       =       124.00
     number of Kohn-Sham states=           74
     kinetic-energy cutoff     =      90.0000  Ry
     charge density cutoff     =    1080.0000  Ry
     scf convergence threshold =      1.0E-08
     mixing beta               =       0.2000
     number of iterations used =            8  plain     mixing
     energy convergence thresh.=      1.0E-05
     force convergence thresh. =      1.0E-04
     Exchange-correlation= SLA  PW   PBE  PBE
                           (   1   4   3   4   0   0   0)
     nstep                     =          100


     celldm(1)=   8.719952  celldm(2)=   0.000000  celldm(3)=   0.000000
     celldm(4)=   0.000000  celldm(5)=   0.000000  celldm(6)=   0.000000

     crystal axes: (cart. coord. in units of alat)
               a(1) = (   1.000000   0.000000   0.000000 )  
               a(2) = (  -0.005000   1.000000   0.000000 )  
               a(3) = (   0.000000   0.000000   1.000000 )  

     reciprocal axes: (cart. coord. in units 2 pi/alat)
               b(1) = (  1.000000  0.005000 -0.000000 )  
               b(2) = (  0.000000  1.000000  0.000000 )  
               b(3) = (  0.000000 -0.000000  1.000000 )  


     PseudoPot. # 1 for Cr read from file:
     /opt/QEpot/SSSP_efficiency_pseudos/cr_pbe_v1.5.uspp.F.UPF
     MD5 check sum: 0d52af634a40206e4dee301ad30da4bf
     Pseudo is Ultrasoft + core correction, Zval = 14.0
     Generated by new atomic code, or converted to UPF format
     Using radial grid of  857 points,  6 beta functions with: 
                l(1) =   0
                l(2) =   0
                l(3) =   1
                l(4) =   1
                l(5) =   2
                l(6) =   2
     Q(r) pseudized with  8 coefficients,  rinner =    0.950   0.950   0.950
                                                       0.950   0.950

     PseudoPot. # 2 for Co read from file:
     /opt/QEpot/SSSP_efficiency_pseudos/Co_pbe_v1.2.uspp.F.UPF
     MD5 check sum: 5f91765df6ddd3222702df6e7b74a16d
     Pseudo is Ultrasoft + core correction, Zval = 17.0
     Generated by new atomic code, or converted to UPF format
     Using radial grid of  863 points,  6 beta functions with: 
                l(1) =   0
                l(2) =   0
                l(3) =   1
                l(4) =   1
                l(5) =   2
                l(6) =   2
     Q(r) pseudized with  8 coefficients,  rinner =    1.200   1.200   1.200
                                                       1.200   1.200

     atomic species   valence    mass     pseudopotential
        Cr            14.00    51.99610     Cr( 1.00)
        Co            17.00    58.93300     Co( 1.00)

     Starting magnetic structure 
     atomic species   magnetization
        Cr           0.000
        Co           0.000

     No symmetry found



   Cartesian axes

     site n.     atom                  positions (alat units)
         1           Cr  tau(   1) = (  -0.0010546   0.5002484  -0.0003931  )
         2           Co  tau(   2) = (   0.5014454   0.0002484   0.4996069  )
         3           Cr  tau(   3) = (   0.0014454   0.0002484   0.4996069  )
         4           Co  tau(   4) = (   0.4989454   0.5002484  -0.0003931  )
         5           Cr  tau(   5) = (   0.5011986   0.0008287   0.0019400  )
         6           Co  tau(   6) = (  -0.0010546   0.5002484   0.4996069  )
         7           Cr  tau(   7) = (   0.4986986   0.5008287   0.5019400  )
         8           Co  tau(   8) = (   0.0014454   0.0002484  -0.0003931  )

     number of k points=   112  Gaussian smearing, width (Ry)=  0.0100

     Number of k-points >= 100: set verbosity='high' to print them.

     Dense  grid:   397439 G-vectors     FFT dimensions: (  96,  96,  96)

     Smooth grid:    76581 G-vectors     FFT dimensions: (  54,  54,  54)

     Estimated max dynamical RAM per process >     174.71 MB

     Estimated total dynamical RAM >       4.09 GB

     Check: negative core charge=   -0.000010
     Generating pointlists ...
     new r_m :   0.2053 (alat units)  1.7901 (a.u.) for type    1
     new r_m :   0.2053 (alat units)  1.7901 (a.u.) for type    2

     Initial potential from superposition of free atoms

     starting charge  115.99991, renormalised to  124.00000

     negative rho (up, down):  1.663E-03 1.663E-03
     Starting wfcs are   92 randomized atomic wfcs

     total cpu time spent up to now is       20.8 secs

     Self-consistent Calculation

     iteration #  1     ecut=    90.00 Ry     beta= 0.20
     Davidson diagonalization with overlap
     ethr =  1.00E-02,  avg # of iterations =  3.0

     negative rho (up, down):  1.105E-03 1.106E-03

     total cpu time spent up to now is       85.3 secs

     total energy              =   -1872.68123155 Ry
     estimated scf accuracy    <     112.08455054 Ry

     total magnetization       =    -0.00 Bohr mag/cell
     absolute magnetization    =     0.01 Bohr mag/cell

     iteration #  2     ecut=    90.00 Ry     beta= 0.20
     Davidson diagonalization with overlap
     ethr =  1.00E-02,  avg # of iterations =  5.2

     negative rho (up, down):  1.829E-03 1.829E-03

     total cpu time spent up to now is      161.8 secs

     total energy              =   -1895.32261528 Ry
     estimated scf accuracy    <      61.54849005 Ry

     total magnetization       =    -0.00 Bohr mag/cell
     absolute magnetization    =     0.01 Bohr mag/cell

     iteration #  3     ecut=    90.00 Ry     beta= 0.20
     Davidson diagonalization with overlap
     ethr =  1.00E-02,  avg # of iterations =  2.8

     negative rho (up, down):  5.120E-03 5.120E-03

     total cpu time spent up to now is      212.7 secs

     total energy              =   -1886.43342464 Ry
     estimated scf accuracy    <      19.99259868 Ry

     total magnetization       =    -0.00 Bohr mag/cell
     absolute magnetization    =     0.01 Bohr mag/cell

     iteration #  4     ecut=    90.00 Ry     beta= 0.20
     Davidson diagonalization with overlap
     ethr =  1.00E-02,  avg # of iterations =  5.5

     negative rho (up, down):  1.834E-03 1.833E-03

     total cpu time spent up to now is      291.2 secs

     total energy              =   -1882.81457952 Ry
     estimated scf accuracy    <     183.96571457 Ry

     total magnetization       =     0.00 Bohr mag/cell
     absolute magnetization    =     0.04 Bohr mag/cell

     iteration #  5     ecut=    90.00 Ry     beta= 0.20
     Davidson diagonalization with overlap
     ethr =  1.00E-02,  avg # of iterations =  5.6

     negative rho (up, down):  1.832E-03 1.829E-03

     total cpu time spent up to now is      361.9 secs

     total energy              =   -1895.38611396 Ry
     estimated scf accuracy    <       6.18253725 Ry

     total magnetization       =    -0.01 Bohr mag/cell
     absolute magnetization    =     0.03 Bohr mag/cell

     iteration #  6     ecut=    90.00 Ry     beta= 0.20
     Davidson diagonalization with overlap
     ethr =  4.99E-03,  avg # of iterations =  1.2

     negative rho (up, down):  1.817E-03 1.815E-03

     total cpu time spent up to now is      400.5 secs

     total energy              =   -1895.43361085 Ry
     estimated scf accuracy    <       2.58884186 Ry

     total magnetization       =     0.01 Bohr mag/cell
     absolute magnetization    =     0.03 Bohr mag/cell

     iteration #  7     ecut=    90.00 Ry     beta= 0.20
     Davidson diagonalization with overlap
     ethr =  2.09E-03,  avg # of iterations =  1.6

     negative rho (up, down):  1.775E-03 1.777E-03

     total cpu time spent up to now is      440.1 secs

     total energy              =   -1895.30695261 Ry
     estimated scf accuracy    <       2.25049913 Ry

     total magnetization       =     0.05 Bohr mag/cell
     absolute magnetization    =     0.05 Bohr mag/cell

     iteration #  8     ecut=    90.00 Ry     beta= 0.20
     Davidson diagonalization with overlap
     ethr =  1.81E-03,  avg # of iterations =  1.3

     negative rho (up, down):  1.726E-03 1.732E-03

     total cpu time spent up to now is      478.8 secs

     total energy              =   -1895.34556892 Ry
     estimated scf accuracy    <       0.31599945 Ry

     total magnetization       =     0.01 Bohr mag/cell
     absolute magnetization    =     0.02 Bohr mag/cell

     iteration #  9     ecut=    90.00 Ry     beta= 0.20
     Davidson diagonalization with overlap
     ethr =  2.55E-04,  avg # of iterations =  5.6

     negative rho (up, down):  1.647E-03 1.657E-03

     total cpu time spent up to now is      533.3 secs

     total energy              =   -1895.37407000 Ry
     estimated scf accuracy    <       0.03885809 Ry

     total magnetization       =     0.02 Bohr mag/cell
     absolute magnetization    =     0.03 Bohr mag/cell

     iteration # 10     ecut=    90.00 Ry     beta= 0.20
     Davidson diagonalization with overlap
     ethr =  3.13E-05,  avg # of iterations =  6.3

     negative rho (up, down):  1.631E-03 1.642E-03

     total cpu time spent up to now is      606.1 secs

     total energy              =   -1895.40367161 Ry
     estimated scf accuracy    <       1.19054869 Ry

     total magnetization       =     0.02 Bohr mag/cell
     absolute magnetization    =     0.02 Bohr mag/cell

     iteration # 11     ecut=    90.00 Ry     beta= 0.20
     Davidson diagonalization with overlap
     ethr =  3.13E-05,  avg # of iterations =  4.5

     negative rho (up, down):  1.633E-03 1.648E-03

     total cpu time spent up to now is      655.9 secs

     total energy              =   -1895.35365608 Ry
     estimated scf accuracy    <       0.44656634 Ry

     total magnetization       =     0.03 Bohr mag/cell
     absolute magnetization    =     0.03 Bohr mag/cell

     iteration # 12     ecut=    90.00 Ry     beta= 0.20
     Davidson diagonalization with overlap
     ethr =  3.13E-05,  avg # of iterations =  5.5

     negative rho (up, down):  1.627E-03 1.644E-03

     total cpu time spent up to now is      720.9 secs

     total energy              =   -1895.39857046 Ry
     estimated scf accuracy    <       0.13083513 Ry

     total magnetization       =     0.03 Bohr mag/cell
     absolute magnetization    =     0.03 Bohr mag/cell

     iteration # 13     ecut=    90.00 Ry     beta= 0.20
     Davidson diagonalization with overlap
     ethr =  3.13E-05,  avg # of iterations =  1.1

     negative rho (up, down):  1.623E-03 1.642E-03

     total cpu time spent up to now is      758.8 secs

     total energy              =   -1895.40866008 Ry
     estimated scf accuracy    <       0.14886958 Ry

     total magnetization       =     0.04 Bohr mag/cell
     absolute magnetization    =     0.04 Bohr mag/cell

     iteration # 14     ecut=    90.00 Ry     beta= 0.20
     Davidson diagonalization with overlap
     ethr =  3.13E-05,  avg # of iterations =  2.9

     negative rho (up, down):  1.628E-03 1.647E-03

     total cpu time spent up to now is      807.6 secs

     total energy              =   -1895.36503874 Ry
     estimated scf accuracy    <       0.47319508 Ry

     total magnetization       =     0.04 Bohr mag/cell
     absolute magnetization    =     0.04 Bohr mag/cell

     iteration # 15     ecut=    90.00 Ry     beta= 0.20
     Davidson diagonalization with overlap
     ethr =  3.13E-05,  avg # of iterations =  4.9

     negative rho (up, down):  1.624E-03 1.643E-03

     total cpu time spent up to now is      861.9 secs

     total energy              =   -1895.39263967 Ry
     estimated scf accuracy    <       0.01459722 Ry

     total magnetization       =     0.04 Bohr mag/cell
     absolute magnetization    =     0.04 Bohr mag/cell

     iteration # 16     ecut=    90.00 Ry     beta= 0.20
     Davidson diagonalization with overlap
     ethr =  1.18E-05,  avg # of iterations =  2.1

     negative rho (up, down):  1.613E-03 1.632E-03

     total cpu time spent up to now is      904.1 secs

     total energy              =   -1895.39232428 Ry
     estimated scf accuracy    <       0.00949354 Ry

     total magnetization       =     0.04 Bohr mag/cell
     absolute magnetization    =     0.04 Bohr mag/cell

     iteration # 17     ecut=    90.00 Ry     beta= 0.20
     Davidson diagonalization with overlap
     ethr =  7.66E-06,  avg # of iterations =  1.2

     negative rho (up, down):  1.613E-03 1.636E-03

     total cpu time spent up to now is      943.4 secs

     total energy              =   -1895.39229623 Ry
     estimated scf accuracy    <       0.00248063 Ry

     total magnetization       =     0.04 Bohr mag/cell
     absolute magnetization    =     0.04 Bohr mag/cell

     iteration # 18     ecut=    90.00 Ry     beta= 0.20
     Davidson diagonalization with overlap
     ethr =  2.00E-06,  avg # of iterations =  3.5

     negative rho (up, down):  1.615E-03 1.639E-03

     total cpu time spent up to now is      990.2 secs

     total energy              =   -1895.39250244 Ry
     estimated scf accuracy    <       0.00042272 Ry

     total magnetization       =     0.04 Bohr mag/cell
     absolute magnetization    =     0.04 Bohr mag/cell

     iteration # 19     ecut=    90.00 Ry     beta= 0.20
     Davidson diagonalization with overlap
     ethr =  3.41E-07,  avg # of iterations =  5.2

     negative rho (up, down):  1.615E-03 1.639E-03

     total cpu time spent up to now is     1041.1 secs

     total energy              =   -1895.39245593 Ry
     estimated scf accuracy    <       0.00108188 Ry

     total magnetization       =     0.04 Bohr mag/cell
     absolute magnetization    =     0.04 Bohr mag/cell

     iteration # 20     ecut=    90.00 Ry     beta= 0.20
     Davidson diagonalization with overlap
     ethr =  3.41E-07,  avg # of iterations =  1.5

     negative rho (up, down):  1.613E-03 1.642E-03

     total cpu time spent up to now is     1081.1 secs

     total energy              =   -1895.39249582 Ry
     estimated scf accuracy    <       0.00001608 Ry

     total magnetization       =     0.04 Bohr mag/cell
     absolute magnetization    =     0.04 Bohr mag/cell

     iteration # 21     ecut=    90.00 Ry     beta= 0.20
     Davidson diagonalization with overlap
     ethr =  1.30E-08,  avg # of iterations =  6.0

     negative rho (up, down):  1.613E-03 1.642E-03

     total cpu time spent up to now is     1144.0 secs

     total energy              =   -1895.39250073 Ry
     estimated scf accuracy    <       0.00003980 Ry

     total magnetization       =     0.05 Bohr mag/cell
     absolute magnetization    =     0.05 Bohr mag/cell

     iteration # 22     ecut=    90.00 Ry     beta= 0.20
     Davidson diagonalization with overlap
     ethr =  1.30E-08,  avg # of iterations =  1.0

     negative rho (up, down):  1.612E-03 1.643E-03

     total cpu time spent up to now is     1182.0 secs

     total energy              =   -1895.39250108 Ry
     estimated scf accuracy    <       0.00002150 Ry

     total magnetization       =     0.05 Bohr mag/cell
     absolute magnetization    =     0.05 Bohr mag/cell

     iteration # 23     ecut=    90.00 Ry     beta= 0.20
     Davidson diagonalization with overlap
     ethr =  1.30E-08,  avg # of iterations =  1.0

     negative rho (up, down):  1.611E-03 1.643E-03

     total cpu time spent up to now is     1220.0 secs

     total energy              =   -1895.39250152 Ry
     estimated scf accuracy    <       0.00000422 Ry

     total magnetization       =     0.05 Bohr mag/cell
     absolute magnetization    =     0.05 Bohr mag/cell

     iteration # 24     ecut=    90.00 Ry     beta= 0.20
     Davidson diagonalization with overlap
     ethr =  3.40E-09,  avg # of iterations =  2.6

     negative rho (up, down):  1.610E-03 1.644E-03

     total cpu time spent up to now is     1264.1 secs

     total energy              =   -1895.39250181 Ry
     estimated scf accuracy    <       0.00000201 Ry

     total magnetization       =     0.05 Bohr mag/cell
     absolute magnetization    =     0.05 Bohr mag/cell

     iteration # 25     ecut=    90.00 Ry     beta= 0.20
     Davidson diagonalization with overlap
     ethr =  1.62E-09,  avg # of iterations =  2.3

     negative rho (up, down):  1.608E-03 1.645E-03

     total cpu time spent up to now is     1306.4 secs

     total energy              =   -1895.39250223 Ry
     estimated scf accuracy    <       0.00000158 Ry

     total magnetization       =     0.05 Bohr mag/cell
     absolute magnetization    =     0.05 Bohr mag/cell

     iteration # 26     ecut=    90.00 Ry     beta= 0.20
     Davidson diagonalization with overlap
     ethr =  1.28E-09,  avg # of iterations =  1.5

     negative rho (up, down):  1.608E-03 1.646E-03

     total cpu time spent up to now is     1346.4 secs

     total energy              =   -1895.39250244 Ry
     estimated scf accuracy    <       0.00000209 Ry

     total magnetization       =     0.06 Bohr mag/cell
     absolute magnetization    =     0.06 Bohr mag/cell

     iteration # 27     ecut=    90.00 Ry     beta= 0.20
     Davidson diagonalization with overlap
     ethr =  1.28E-09,  avg # of iterations =  1.5

     negative rho (up, down):  1.607E-03 1.646E-03

     total cpu time spent up to now is     1388.9 secs

     total energy              =   -1895.39250252 Ry
     estimated scf accuracy    <       0.00000204 Ry

     total magnetization       =     0.06 Bohr mag/cell
     absolute magnetization    =     0.06 Bohr mag/cell

     iteration # 28     ecut=    90.00 Ry     beta= 0.20
     Davidson diagonalization with overlap
     ethr =  1.28E-09,  avg # of iterations =  1.3

     negative rho (up, down):  1.607E-03 1.646E-03

     total cpu time spent up to now is     1427.3 secs

     total energy              =   -1895.39250268 Ry
     estimated scf accuracy    <       0.00000186 Ry

     total magnetization       =     0.06 Bohr mag/cell
     absolute magnetization    =     0.06 Bohr mag/cell

     iteration # 29     ecut=    90.00 Ry     beta= 0.20
     Davidson diagonalization with overlap
     ethr =  1.28E-09,  avg # of iterations =  1.0

     negative rho (up, down):  1.607E-03 1.646E-03

     total cpu time spent up to now is     1464.7 secs

     total energy              =   -1895.39250255 Ry
     estimated scf accuracy    <       0.00000128 Ry

     total magnetization       =     0.06 Bohr mag/cell
     absolute magnetization    =     0.06 Bohr mag/cell

     iteration # 30     ecut=    90.00 Ry     beta= 0.20
     Davidson diagonalization with overlap
     ethr =  1.04E-09,  avg # of iterations =  1.1

     negative rho (up, down):  1.612E-03 1.642E-03

     total cpu time spent up to now is     1502.3 secs

     total energy              =   -1895.39250113 Ry
     estimated scf accuracy    <       0.00000148 Ry

     total magnetization       =     0.06 Bohr mag/cell
     absolute magnetization    =     0.06 Bohr mag/cell

     iteration # 31     ecut=    90.00 Ry     beta= 0.20
     Davidson diagonalization with overlap
     ethr =  1.04E-09,  avg # of iterations =  2.6

     negative rho (up, down):  1.613E-03 1.640E-03

     total cpu time spent up to now is     1546.0 secs

     total energy              =   -1895.39250102 Ry
     estimated scf accuracy    <       0.00000131 Ry

     total magnetization       =     0.05 Bohr mag/cell
     absolute magnetization    =     0.05 Bohr mag/cell

     iteration # 32     ecut=    90.00 Ry     beta= 0.20
     Davidson diagonalization with overlap
     ethr =  1.04E-09,  avg # of iterations =  3.2

     negative rho (up, down):  1.617E-03 1.635E-03

     total cpu time spent up to now is     1592.4 secs

     total energy              =   -1895.39249990 Ry
     estimated scf accuracy    <       0.00000531 Ry

     total magnetization       =     0.04 Bohr mag/cell
     absolute magnetization    =     0.04 Bohr mag/cell

     iteration # 33     ecut=    90.00 Ry     beta= 0.20
     Davidson diagonalization with overlap
     ethr =  1.04E-09,  avg # of iterations =  4.7

     negative rho (up, down):  1.624E-03 1.628E-03

     total cpu time spent up to now is     1642.1 secs

     total energy              =   -1895.39249894 Ry
     estimated scf accuracy    <       0.00000109 Ry

     total magnetization       =     0.03 Bohr mag/cell
     absolute magnetization    =     0.03 Bohr mag/cell

     iteration # 34     ecut=    90.00 Ry     beta= 0.20
     Davidson diagonalization with overlap
     ethr =  8.82E-10,  avg # of iterations =  5.3

     negative rho (up, down):  1.622E-03 1.630E-03

     total cpu time spent up to now is     1697.7 secs

     total energy              =   -1895.39250005 Ry
     estimated scf accuracy    <       0.00000025 Ry

     total magnetization       =     0.01 Bohr mag/cell
     absolute magnetization    =     0.01 Bohr mag/cell

     iteration # 35     ecut=    90.00 Ry     beta= 0.20
     Davidson diagonalization with overlap
     ethr =  1.98E-10,  avg # of iterations =  3.6

     negative rho (up, down):  1.623E-03 1.629E-03

     total cpu time spent up to now is     1744.5 secs

     total energy              =   -1895.39250007 Ry
     estimated scf accuracy    <       0.00000032 Ry

     total magnetization       =     0.02 Bohr mag/cell
     absolute magnetization    =     0.02 Bohr mag/cell

     iteration # 36     ecut=    90.00 Ry     beta= 0.20
     Davidson diagonalization with overlap
     ethr =  1.98E-10,  avg # of iterations =  1.3

     negative rho (up, down):  1.624E-03 1.628E-03

     total cpu time spent up to now is     1783.7 secs

     total energy              =   -1895.39250004 Ry
     estimated scf accuracy    <       0.00000024 Ry

     total magnetization       =     0.01 Bohr mag/cell
     absolute magnetization    =     0.01 Bohr mag/cell

     iteration # 37     ecut=    90.00 Ry     beta= 0.20
     Davidson diagonalization with overlap
     ethr =  1.90E-10,  avg # of iterations =  1.9

     negative rho (up, down):  1.625E-03 1.627E-03

     total cpu time spent up to now is     1825.2 secs

     total energy              =   -1895.39250007 Ry
     estimated scf accuracy    <       0.00000021 Ry

     total magnetization       =     0.01 Bohr mag/cell
     absolute magnetization    =     0.01 Bohr mag/cell

     iteration # 38     ecut=    90.00 Ry     beta= 0.20
     Davidson diagonalization with overlap
     ethr =  1.68E-10,  avg # of iterations =  1.3

     negative rho (up, down):  1.625E-03 1.626E-03

     total cpu time spent up to now is     1864.3 secs

     total energy              =   -1895.39250007 Ry
     estimated scf accuracy    <       0.00000009 Ry

     total magnetization       =     0.01 Bohr mag/cell
     absolute magnetization    =     0.01 Bohr mag/cell

     iteration # 39     ecut=    90.00 Ry     beta= 0.20
     Davidson diagonalization with overlap
     ethr =  7.20E-11,  avg # of iterations =  3.2

     negative rho (up, down):  1.626E-03 1.626E-03

     total cpu time spent up to now is     1909.5 secs

     total energy              =   -1895.39250007 Ry
     estimated scf accuracy    <       0.00000010 Ry

     total magnetization       =     0.01 Bohr mag/cell
     absolute magnetization    =     0.01 Bohr mag/cell

     iteration # 40     ecut=    90.00 Ry     beta= 0.20
     Davidson diagonalization with overlap
     ethr =  7.20E-11,  avg # of iterations =  3.1

     negative rho (up, down):  1.626E-03 1.626E-03

     total cpu time spent up to now is     1955.4 secs

     total energy              =   -1895.39250010 Ry
     estimated scf accuracy    <       0.00000005 Ry

     total magnetization       =     0.00 Bohr mag/cell
     absolute magnetization    =     0.01 Bohr mag/cell

     iteration # 41     ecut=    90.00 Ry     beta= 0.20
     Davidson diagonalization with overlap
     ethr =  4.09E-11,  avg # of iterations =  1.3

     negative rho (up, down):  1.626E-03 1.626E-03

     total cpu time spent up to now is     1996.4 secs

     total energy              =   -1895.39250011 Ry
     estimated scf accuracy    <       0.00000004 Ry

     total magnetization       =     0.00 Bohr mag/cell
     absolute magnetization    =     0.01 Bohr mag/cell

     iteration # 42     ecut=    90.00 Ry     beta= 0.20
     Davidson diagonalization with overlap
     ethr =  3.14E-11,  avg # of iterations =  2.4

     negative rho (up, down):  1.626E-03 1.626E-03

     total cpu time spent up to now is     2040.5 secs

     total energy              =   -1895.39250012 Ry
     estimated scf accuracy    <       0.00000009 Ry

     total magnetization       =     0.00 Bohr mag/cell
     absolute magnetization    =     0.01 Bohr mag/cell

     iteration # 43     ecut=    90.00 Ry     beta= 0.20
     Davidson diagonalization with overlap
     ethr =  3.14E-11,  avg # of iterations =  3.0

     negative rho (up, down):  1.626E-03 1.626E-03

     total cpu time spent up to now is     2087.0 secs

     total energy              =   -1895.39250010 Ry
     estimated scf accuracy    <       0.00000005 Ry

     total magnetization       =     0.00 Bohr mag/cell
     absolute magnetization    =     0.01 Bohr mag/cell

     iteration # 44     ecut=    90.00 Ry     beta= 0.20
     Davidson diagonalization with overlap
     ethr =  3.14E-11,  avg # of iterations =  1.8

     negative rho (up, down):  1.626E-03 1.626E-03

     total cpu time spent up to now is     2128.7 secs

     total energy              =   -1895.39250010 Ry
     estimated scf accuracy    <       0.00000008 Ry

     total magnetization       =     0.00 Bohr mag/cell
     absolute magnetization    =     0.01 Bohr mag/cell

     iteration # 45     ecut=    90.00 Ry     beta= 0.20
     Davidson diagonalization with overlap
     ethr =  3.14E-11,  avg # of iterations =  5.2

     negative rho (up, down):  1.626E-03 1.627E-03

     total cpu time spent up to now is     2188.5 secs

     total energy              =   -1895.39250014 Ry
     estimated scf accuracy    <       0.00000002 Ry

     total magnetization       =     0.00 Bohr mag/cell
     absolute magnetization    =     0.01 Bohr mag/cell

     iteration # 46     ecut=    90.00 Ry     beta= 0.20
     Davidson diagonalization with overlap
     ethr =  1.80E-11,  avg # of iterations =  3.7

     negative rho (up, down):  1.626E-03 1.627E-03

     total cpu time spent up to now is     2236.2 secs

     total energy              =   -1895.39250015 Ry
     estimated scf accuracy    <       0.00000003 Ry

     total magnetization       =     0.00 Bohr mag/cell
     absolute magnetization    =     0.01 Bohr mag/cell

     iteration # 47     ecut=    90.00 Ry     beta= 0.20
     Davidson diagonalization with overlap
     ethr =  1.80E-11,  avg # of iterations =  1.5

     negative rho (up, down):  1.626E-03 1.627E-03

     Magnetic moment per site:
     atom:    1    charge:   11.7669    magn:   -0.0006    constr:    0.0000
     atom:    2    charge:   15.2960    magn:   -0.0002    constr:    0.0000
     atom:    3    charge:   11.7669    magn:    0.0025    constr:    0.0000
     atom:    4    charge:   15.2960    magn:   -0.0001    constr:    0.0000
     atom:    5    charge:   11.7670    magn:    0.0009    constr:    0.0000
     atom:    6    charge:   15.2960    magn:    0.0011    constr:    0.0000
     atom:    7    charge:   11.7669    magn:   -0.0018    constr:    0.0000
     atom:    8    charge:   15.2959    magn:    0.0000    constr:    0.0000

     total cpu time spent up to now is     2276.2 secs

     End of self-consistent calculation

     Number of k-points >= 100: set verbosity='high' to print the bands.

     the Fermi energy is    17.3533 ev

!    total energy              =   -1895.39250016 Ry
     estimated scf accuracy    <          9.2E-09 Ry
     smearing contrib. (-TS)   =      -0.01114699 Ry
     internal energy E=F+TS    =   -1895.38135316 Ry

     The total energy is F=E-TS. E is the sum of the following terms:
     one-electron contribution =    -969.90636693 Ry
     hartree contribution      =     552.75001299 Ry
     xc contribution           =    -220.25446801 Ry
     ewald contribution        =   -1257.97053121 Ry

     total magnetization       =     0.00 Bohr mag/cell
     absolute magnetization    =     0.01 Bohr mag/cell

     convergence has been achieved in  47 iterations

     negative rho (up, down):  1.626E-03 1.627E-03

     Forces acting on atoms (cartesian axes, Ry/au):

     atom    1 type  1   force =     0.00003300   -0.00007245   -0.00027889
     atom    2 type  2   force =     0.00014073    0.00029788    0.00118438
     atom    3 type  1   force =     0.00003291   -0.00007240   -0.00027884
     atom    4 type  2   force =     0.00014004    0.00029853    0.00118531
     atom    5 type  1   force =     0.00003126   -0.00006483   -0.00025930
     atom    6 type  2   force =    -0.00020462   -0.00016098   -0.00064604
     atom    7 type  1   force =     0.00003125   -0.00006477   -0.00025932
     atom    8 type  2   force =    -0.00020457   -0.00016097   -0.00064730

     Total force =     0.002076     Total SCF correction =     0.000018


     Computing stress (Cartesian axis) and pressure


     negative rho (up, down):  1.626E-03 1.627E-03
          total   stress  (Ry/bohr**3)                   (kbar)     P=        0.35
   0.00000270  -0.00001191   0.00000000            0.40       -1.75        0.00
  -0.00001191   0.00000229  -0.00000012           -1.75        0.34       -0.02
   0.00000000  -0.00000012   0.00000215            0.00       -0.02        0.32

     Energy error            =      3.6E-01
     Gradient error          =      1.2E-03

     number of scf cycles    =   4
     number of bfgs steps    =   2

     energy   old            =   -1895.7552250888 Ry
     energy   new            =   -1895.3925001577 Ry

     CASE: energy  _new > energy  _old

     new trust radius        =       0.0003112890 bohr
     new conv_thr            =       0.0000000100 Ry


ATOMIC_POSITIONS (angstrom)
Cr            0.6077214861        2.0266115890       -1.1944009883
Co            2.7249552158        0.3874836051        2.3315759014
Cr            0.4277099984       -0.4436567072        2.2275445062
Co            1.8823703096        2.7307965619        1.0562572540
Cr            1.6978116977        0.4383836087        0.0079438982
Co           -0.4281032579        1.8858700531        1.0799255857
Cr            2.7657607413        2.6489845875        3.3338666991
Co           -0.6211877259       -0.4232753984        0.0336289890



     Writing output data file ./pwscf.save/
     NEW-OLD atomic charge density approx. for the potential

     Check: negative core charge=   -0.000010

     negative rho (up, down):  1.976E-02 1.976E-02
     Generating pointlists ...
     new r_m :   0.2009 (alat units)  1.7521 (a.u.) for type    1

     total cpu time spent up to now is     2301.7 secs

     Self-consistent Calculation

     iteration #  1     ecut=    90.00 Ry     beta= 0.20
     Davidson diagonalization with overlap
     c_bands:  5 eigenvalues not converged
     c_bands:  4 eigenvalues not converged
     c_bands:  4 eigenvalues not converged
     c_bands:  4 eigenvalues not converged
     c_bands:  5 eigenvalues not converged
     c_bands:  3 eigenvalues not converged
     c_bands:  2 eigenvalues not converged
     c_bands:  1 eigenvalues not converged
     c_bands:  5 eigenvalues not converged
     c_bands:  5 eigenvalues not converged
     c_bands:  2 eigenvalues not converged
     c_bands:  5 eigenvalues not converged
     c_bands:  2 eigenvalues not converged
     c_bands:  4 eigenvalues not converged
     c_bands:  1 eigenvalues not converged
     c_bands:  3 eigenvalues not converged
     c_bands:  1 eigenvalues not converged
     c_bands:  4 eigenvalues not converged
     c_bands:  5 eigenvalues not converged
     c_bands:  5 eigenvalues not converged
     c_bands:  4 eigenvalues not converged
     c_bands:  5 eigenvalues not converged
     c_bands:  1 eigenvalues not converged
     c_bands:  4 eigenvalues not converged
     c_bands:  5 eigenvalues not converged
     c_bands:  5 eigenvalues not converged
     ethr =  1.00E-06,  avg # of iterations = 26.6

     negative rho (up, down):  8.277E-03 8.280E-03

     total cpu time spent up to now is     2699.8 secs

     total energy              =   -1892.75465631 Ry
     estimated scf accuracy    <       9.66569198 Ry

     total magnetization       =    -0.00 Bohr mag/cell
     absolute magnetization    =     0.01 Bohr mag/cell

     iteration #  2     ecut=    90.00 Ry     beta= 0.20
     Davidson diagonalization with overlap
     ethr =  7.79E-03,  avg # of iterations =  3.9

     negative rho (up, down):  6.849E-03 6.853E-03

     total cpu time spent up to now is     2755.9 secs

     total energy              =   -1895.04658533 Ry
     estimated scf accuracy    <      34.12519342 Ry

     total magnetization       =     0.00 Bohr mag/cell
     absolute magnetization    =     0.01 Bohr mag/cell

     iteration #  3     ecut=    90.00 Ry     beta= 0.20
     Davidson diagonalization with overlap
     ethr =  7.79E-03,  avg # of iterations =  1.1

     negative rho (up, down):  6.256E-03 6.260E-03

     total cpu time spent up to now is     2794.0 secs

     total energy              =   -1895.74806688 Ry
     estimated scf accuracy    <       7.59993236 Ry

     total magnetization       =     0.00 Bohr mag/cell
     absolute magnetization    =     0.01 Bohr mag/cell

     iteration #  4     ecut=    90.00 Ry     beta= 0.20
     Davidson diagonalization with overlap
     ethr =  6.13E-03,  avg # of iterations =  1.0

     negative rho (up, down):  5.407E-03 5.411E-03

     total cpu time spent up to now is     2831.6 secs

     total energy              =   -1895.68435217 Ry
     estimated scf accuracy    <       4.69539962 Ry

     total magnetization       =     0.00 Bohr mag/cell
     absolute magnetization    =     0.01 Bohr mag/cell

     iteration #  5     ecut=    90.00 Ry     beta= 0.20
     Davidson diagonalization with overlap
     ethr =  3.79E-03,  avg # of iterations =  1.0

     negative rho (up, down):  2.371E-03 2.375E-03

     total cpu time spent up to now is     2868.5 secs

     total energy              =   -1895.36497553 Ry
     estimated scf accuracy    <       2.21907764 Ry

     total magnetization       =     0.00 Bohr mag/cell
     absolute magnetization    =     0.01 Bohr mag/cell

     iteration #  6     ecut=    90.00 Ry     beta= 0.20
     Davidson diagonalization with overlap
     ethr =  1.79E-03,  avg # of iterations =  2.3

     negative rho (up, down):  1.985E-03 1.989E-03

     total cpu time spent up to now is     2913.0 secs

     total energy              =   -1896.18993038 Ry
     estimated scf accuracy    <      13.91620208 Ry

     total magnetization       =     0.00 Bohr mag/cell
     absolute magnetization    =     0.01 Bohr mag/cell

     iteration #  7     ecut=    90.00 Ry     beta= 0.20
     Davidson diagonalization with overlap
     ethr =  1.79E-03,  avg # of iterations =  1.2

     negative rho (up, down):  1.857E-03 1.861E-03

     total cpu time spent up to now is     2951.0 secs

     total energy              =   -1895.70668537 Ry
     estimated scf accuracy    <      24.03566652 Ry

     total magnetization       =     0.00 Bohr mag/cell
     absolute magnetization    =     0.01 Bohr mag/cell

     iteration #  8     ecut=    90.00 Ry     beta= 0.20
     Davidson diagonalization with overlap
     ethr =  1.79E-03,  avg # of iterations =  1.0

     negative rho (up, down):  1.752E-03 1.756E-03

     total cpu time spent up to now is     2988.0 secs

     total energy              =   -1895.56796755 Ry
     estimated scf accuracy    <       6.56994521 Ry

     total magnetization       =     0.00 Bohr mag/cell
     absolute magnetization    =     0.01 Bohr mag/cell

     iteration #  9     ecut=    90.00 Ry     beta= 0.20
     Davidson diagonalization with overlap
     ethr =  1.79E-03,  avg # of iterations =  1.0

     negative rho (up, down):  1.749E-03 1.753E-03

     total cpu time spent up to now is     3025.0 secs

     total energy              =   -1895.69503712 Ry
     estimated scf accuracy    <       0.55826196 Ry

     total magnetization       =     0.00 Bohr mag/cell
     absolute magnetization    =     0.01 Bohr mag/cell

     iteration # 10     ecut=    90.00 Ry     beta= 0.20
     Davidson diagonalization with overlap
     ethr =  4.50E-04,  avg # of iterations =  1.2

     negative rho (up, down):  1.727E-03 1.730E-03

     total cpu time spent up to now is     3062.7 secs

     total energy              =   -1895.71942314 Ry
     estimated scf accuracy    <       0.07110228 Ry

     total magnetization       =     0.00 Bohr mag/cell
     absolute magnetization    =     0.01 Bohr mag/cell

     iteration # 11     ecut=    90.00 Ry     beta= 0.20
     Davidson diagonalization with overlap
     ethr =  5.73E-05,  avg # of iterations =  4.7

     negative rho (up, down):  1.748E-03 1.751E-03

     total cpu time spent up to now is     3114.6 secs

     total energy              =   -1895.74779419 Ry
     estimated scf accuracy    <       0.45161635 Ry

     total magnetization       =     0.00 Bohr mag/cell
     absolute magnetization    =     0.01 Bohr mag/cell

     iteration # 12     ecut=    90.00 Ry     beta= 0.20
     Davidson diagonalization with overlap
     ethr =  5.73E-05,  avg # of iterations =  1.0

     negative rho (up, down):  1.771E-03 1.775E-03

     total cpu time spent up to now is     3151.7 secs

     total energy              =   -1895.74450833 Ry
     estimated scf accuracy    <       0.28559069 Ry

     total magnetization       =     0.00 Bohr mag/cell
     absolute magnetization    =     0.01 Bohr mag/cell

     iteration # 13     ecut=    90.00 Ry     beta= 0.20
     Davidson diagonalization with overlap
     ethr =  5.73E-05,  avg # of iterations =  1.2

     negative rho (up, down):  1.769E-03 1.773E-03

     total cpu time spent up to now is     3192.1 secs

     total energy              =   -1895.75210919 Ry
     estimated scf accuracy    <       0.01742639 Ry

     total magnetization       =     0.00 Bohr mag/cell
     absolute magnetization    =     0.01 Bohr mag/cell

     iteration # 14     ecut=    90.00 Ry     beta= 0.20
     Davidson diagonalization with overlap
     ethr =  1.41E-05,  avg # of iterations =  4.0

     negative rho (up, down):  1.775E-03 1.779E-03

     total cpu time spent up to now is     3238.5 secs

     total energy              =   -1895.75393055 Ry
     estimated scf accuracy    <       0.03166012 Ry

     total magnetization       =     0.00 Bohr mag/cell
     absolute magnetization    =     0.01 Bohr mag/cell

     iteration # 15     ecut=    90.00 Ry     beta= 0.20
     Davidson diagonalization with overlap
     ethr =  1.41E-05,  avg # of iterations =  1.0

     negative rho (up, down):  1.786E-03 1.789E-03

     total cpu time spent up to now is     3276.1 secs

     total energy              =   -1895.75405408 Ry
     estimated scf accuracy    <       0.01373550 Ry

     total magnetization       =     0.00 Bohr mag/cell
     absolute magnetization    =     0.01 Bohr mag/cell

     iteration # 16     ecut=    90.00 Ry     beta= 0.20
     Davidson diagonalization with overlap
     ethr =  1.11E-05,  avg # of iterations =  1.8

     negative rho (up, down):  1.787E-03 1.791E-03

     total cpu time spent up to now is     3316.1 secs

     total energy              =   -1895.75462759 Ry
     estimated scf accuracy    <       0.00637260 Ry

     total magnetization       =     0.00 Bohr mag/cell
     absolute magnetization    =     0.01 Bohr mag/cell

     iteration # 17     ecut=    90.00 Ry     beta= 0.20
     Davidson diagonalization with overlap
     ethr =  5.14E-06,  avg # of iterations =  1.9

     negative rho (up, down):  1.790E-03 1.794E-03

     total cpu time spent up to now is     3356.8 secs

     total energy              =   -1895.75504746 Ry
     estimated scf accuracy    <       0.00111265 Ry

     total magnetization       =     0.00 Bohr mag/cell
     absolute magnetization    =     0.01 Bohr mag/cell

     iteration # 18     ecut=    90.00 Ry     beta= 0.20
     Davidson diagonalization with overlap
     ethr =  8.97E-07,  avg # of iterations =  2.8

     negative rho (up, down):  1.791E-03 1.795E-03

     total cpu time spent up to now is     3400.3 secs

     total energy              =   -1895.75508785 Ry
     estimated scf accuracy    <       0.00072073 Ry

     total magnetization       =     0.00 Bohr mag/cell
     absolute magnetization    =     0.01 Bohr mag/cell

     iteration # 19     ecut=    90.00 Ry     beta= 0.20
     Davidson diagonalization with overlap
     ethr =  5.81E-07,  avg # of iterations =  1.4

     negative rho (up, down):  1.791E-03 1.795E-03

     total cpu time spent up to now is     3439.5 secs

     total energy              =   -1895.75511246 Ry
     estimated scf accuracy    <       0.00035964 Ry

     total magnetization       =     0.00 Bohr mag/cell
     absolute magnetization    =     0.01 Bohr mag/cell

     iteration # 20     ecut=    90.00 Ry     beta= 0.20
     Davidson diagonalization with overlap
     ethr =  2.90E-07,  avg # of iterations =  1.2

     negative rho (up, down):  1.792E-03 1.796E-03

     total cpu time spent up to now is     3478.2 secs

     total energy              =   -1895.75512827 Ry
     estimated scf accuracy    <       0.00005799 Ry

     total magnetization       =     0.00 Bohr mag/cell
     absolute magnetization    =     0.01 Bohr mag/cell

     iteration # 21     ecut=    90.00 Ry     beta= 0.20
     Davidson diagonalization with overlap
     ethr =  4.68E-08,  avg # of iterations =  2.9

     negative rho (up, down):  1.792E-03 1.796E-03

     total cpu time spent up to now is     3523.0 secs

     total energy              =   -1895.75512848 Ry
     estimated scf accuracy    <       0.00007255 Ry

     total magnetization       =     0.00 Bohr mag/cell
     absolute magnetization    =     0.01 Bohr mag/cell

     iteration # 22     ecut=    90.00 Ry     beta= 0.20
     Davidson diagonalization with overlap
     ethr =  4.68E-08,  avg # of iterations =  1.1

     negative rho (up, down):  1.792E-03 1.796E-03

     total cpu time spent up to now is     3561.3 secs

     total energy              =   -1895.75512933 Ry
     estimated scf accuracy    <       0.00004553 Ry

     total magnetization       =     0.00 Bohr mag/cell
     absolute magnetization    =     0.01 Bohr mag/cell

     iteration # 23     ecut=    90.00 Ry     beta= 0.20
     Davidson diagonalization with overlap
     ethr =  3.67E-08,  avg # of iterations =  1.2

     negative rho (up, down):  1.792E-03 1.796E-03

     total cpu time spent up to now is     3600.3 secs

     total energy              =   -1895.75513032 Ry
     estimated scf accuracy    <       0.00002135 Ry

     total magnetization       =    -0.00 Bohr mag/cell
     absolute magnetization    =     0.01 Bohr mag/cell

     iteration # 24     ecut=    90.00 Ry     beta= 0.20
     Davidson diagonalization with overlap
     ethr =  1.72E-08,  avg # of iterations =  1.2

     negative rho (up, down):  1.792E-03 1.796E-03

     total cpu time spent up to now is     3638.8 secs

     total energy              =   -1895.75512976 Ry
     estimated scf accuracy    <       0.00001287 Ry

     total magnetization       =    -0.00 Bohr mag/cell
     absolute magnetization    =     0.01 Bohr mag/cell

     iteration # 25     ecut=    90.00 Ry     beta= 0.20
     Davidson diagonalization with overlap
     ethr =  1.04E-08,  avg # of iterations =  1.1

     negative rho (up, down):  1.792E-03 1.796E-03

     total cpu time spent up to now is     3677.2 secs

     total energy              =   -1895.75513124 Ry
     estimated scf accuracy    <       0.00001306 Ry

     total magnetization       =    -0.00 Bohr mag/cell
     absolute magnetization    =     0.01 Bohr mag/cell

     iteration # 26     ecut=    90.00 Ry     beta= 0.20
     Davidson diagonalization with overlap
     ethr =  1.04E-08,  avg # of iterations =  1.0

     negative rho (up, down):  1.792E-03 1.796E-03

     total cpu time spent up to now is     3714.9 secs

     total energy              =   -1895.75513147 Ry
     estimated scf accuracy    <       0.00000192 Ry

     total magnetization       =    -0.00 Bohr mag/cell
     absolute magnetization    =     0.01 Bohr mag/cell

     iteration # 27     ecut=    90.00 Ry     beta= 0.20
     Davidson diagonalization with overlap
     ethr =  1.55E-09,  avg # of iterations =  3.0

     negative rho (up, down):  1.792E-03 1.796E-03

     total cpu time spent up to now is     3761.0 secs

     total energy              =   -1895.75513144 Ry
     estimated scf accuracy    <       0.00001023 Ry

     total magnetization       =    -0.00 Bohr mag/cell
     absolute magnetization    =     0.01 Bohr mag/cell

     iteration # 28     ecut=    90.00 Ry     beta= 0.20
     Davidson diagonalization with overlap
     ethr =  1.55E-09,  avg # of iterations =  1.3

     negative rho (up, down):  1.792E-03 1.796E-03

     total cpu time spent up to now is     3801.8 secs

     total energy              =   -1895.75513172 Ry
     estimated scf accuracy    <       0.00000432 Ry

     total magnetization       =    -0.00 Bohr mag/cell
     absolute magnetization    =     0.01 Bohr mag/cell

     iteration # 29     ecut=    90.00 Ry     beta= 0.20
     Davidson diagonalization with overlap
     ethr =  1.55E-09,  avg # of iterations =  1.1

     negative rho (up, down):  1.792E-03 1.796E-03

     total cpu time spent up to now is     3839.4 secs

     total energy              =   -1895.75513180 Ry
     estimated scf accuracy    <       0.00000172 Ry

     total magnetization       =    -0.00 Bohr mag/cell
     absolute magnetization    =     0.01 Bohr mag/cell

     iteration # 30     ecut=    90.00 Ry     beta= 0.20
     Davidson diagonalization with overlap
     ethr =  1.39E-09,  avg # of iterations =  1.0

     negative rho (up, down):  1.792E-03 1.796E-03

     total cpu time spent up to now is     3876.6 secs

     total energy              =   -1895.75513189 Ry
     estimated scf accuracy    <       0.00000033 Ry

     total magnetization       =    -0.00 Bohr mag/cell
     absolute magnetization    =     0.01 Bohr mag/cell

     iteration # 31     ecut=    90.00 Ry     beta= 0.20
     Davidson diagonalization with overlap
     ethr =  2.70E-10,  avg # of iterations =  1.2

     negative rho (up, down):  1.792E-03 1.796E-03

     total cpu time spent up to now is     3915.1 secs

     total energy              =   -1895.75513190 Ry
     estimated scf accuracy    <       0.00000009 Ry

     total magnetization       =    -0.00 Bohr mag/cell
     absolute magnetization    =     0.01 Bohr mag/cell

     iteration # 32     ecut=    90.00 Ry     beta= 0.20
     Davidson diagonalization with overlap
     ethr =  7.04E-11,  avg # of iterations =  2.9

     negative rho (up, down):  1.792E-03 1.796E-03

     total cpu time spent up to now is     3959.5 secs

     total energy              =   -1895.75513190 Ry
     estimated scf accuracy    <       0.00000031 Ry

     total magnetization       =    -0.00 Bohr mag/cell
     absolute magnetization    =     0.01 Bohr mag/cell

     iteration # 33     ecut=    90.00 Ry     beta= 0.20
     Davidson diagonalization with overlap
     ethr =  7.04E-11,  avg # of iterations =  1.2

     negative rho (up, down):  1.792E-03 1.796E-03

     total cpu time spent up to now is     3997.9 secs

     total energy              =   -1895.75513191 Ry
     estimated scf accuracy    <       0.00000007 Ry

     total magnetization       =    -0.00 Bohr mag/cell
     absolute magnetization    =     0.01 Bohr mag/cell

     iteration # 34     ecut=    90.00 Ry     beta= 0.20
     Davidson diagonalization with overlap
     ethr =  5.75E-11,  avg # of iterations =  1.3

     negative rho (up, down):  1.792E-03 1.796E-03

     total cpu time spent up to now is     4036.4 secs

     total energy              =   -1895.75513191 Ry
     estimated scf accuracy    <       0.00000007 Ry

     total magnetization       =    -0.00 Bohr mag/cell
     absolute magnetization    =     0.01 Bohr mag/cell

     iteration # 35     ecut=    90.00 Ry     beta= 0.20
     Davidson diagonalization with overlap
     ethr =  5.75E-11,  avg # of iterations =  1.0

     negative rho (up, down):  1.792E-03 1.796E-03

     total cpu time spent up to now is     4073.4 secs

     total energy              =   -1895.75513192 Ry
     estimated scf accuracy    <       0.00000006 Ry

     total magnetization       =    -0.00 Bohr mag/cell
     absolute magnetization    =     0.01 Bohr mag/cell

     iteration # 36     ecut=    90.00 Ry     beta= 0.20
     Davidson diagonalization with overlap
     ethr =  4.78E-11,  avg # of iterations =  1.0

     negative rho (up, down):  1.792E-03 1.796E-03

     total cpu time spent up to now is     4110.6 secs

     total energy              =   -1895.75513192 Ry
     estimated scf accuracy    <       0.00000002 Ry

     total magnetization       =    -0.00 Bohr mag/cell
     absolute magnetization    =     0.01 Bohr mag/cell

     iteration # 37     ecut=    90.00 Ry     beta= 0.20
     Davidson diagonalization with overlap
     ethr =  1.58E-11,  avg # of iterations =  1.0

     negative rho (up, down):  1.792E-03 1.796E-03

     total cpu time spent up to now is     4147.9 secs

     total energy              =   -1895.75513192 Ry
     estimated scf accuracy    <       0.00000002 Ry

     total magnetization       =    -0.00 Bohr mag/cell
     absolute magnetization    =     0.01 Bohr mag/cell

     iteration # 38     ecut=    90.00 Ry     beta= 0.20
     Davidson diagonalization with overlap
     ethr =  1.58E-11,  avg # of iterations =  1.0

     negative rho (up, down):  1.792E-03 1.796E-03

     total cpu time spent up to now is     4185.1 secs

     total energy              =   -1895.75513192 Ry
     estimated scf accuracy    <       0.00000002 Ry

     total magnetization       =    -0.00 Bohr mag/cell
     absolute magnetization    =     0.01 Bohr mag/cell

     iteration # 39     ecut=    90.00 Ry     beta= 0.20
     Davidson diagonalization with overlap
     ethr =  1.56E-11,  avg # of iterations =  1.0

     negative rho (up, down):  1.792E-03 1.796E-03

     total cpu time spent up to now is     4222.6 secs

     total energy              =   -1895.75513192 Ry
     estimated scf accuracy    <       0.00000002 Ry

     total magnetization       =    -0.00 Bohr mag/cell
     absolute magnetization    =     0.01 Bohr mag/cell

     iteration # 40     ecut=    90.00 Ry     beta= 0.20
     Davidson diagonalization with overlap
     ethr =  1.56E-11,  avg # of iterations =  1.0

     negative rho (up, down):  1.792E-03 1.796E-03

     total cpu time spent up to now is     4260.1 secs

     total energy              =   -1895.75513192 Ry
     estimated scf accuracy    <       0.00000002 Ry

     total magnetization       =    -0.00 Bohr mag/cell
     absolute magnetization    =     0.01 Bohr mag/cell

     iteration # 41     ecut=    90.00 Ry     beta= 0.20
     Davidson diagonalization with overlap
     ethr =  1.56E-11,  avg # of iterations =  1.0

     negative rho (up, down):  1.792E-03 1.796E-03

     total cpu time spent up to now is     4297.1 secs

     total energy              =   -1895.75513193 Ry
     estimated scf accuracy    <       0.00000002 Ry

     total magnetization       =    -0.00 Bohr mag/cell
     absolute magnetization    =     0.01 Bohr mag/cell

     iteration # 42     ecut=    90.00 Ry     beta= 0.20
     Davidson diagonalization with overlap
     ethr =  1.56E-11,  avg # of iterations =  1.0

     negative rho (up, down):  1.792E-03 1.796E-03

     total cpu time spent up to now is     4334.3 secs

     total energy              =   -1895.75513193 Ry
     estimated scf accuracy    <       0.00000002 Ry

     total magnetization       =    -0.00 Bohr mag/cell
     absolute magnetization    =     0.01 Bohr mag/cell

     iteration # 43     ecut=    90.00 Ry     beta= 0.20
     Davidson diagonalization with overlap
     ethr =  1.56E-11,  avg # of iterations =  1.0

     negative rho (up, down):  1.792E-03 1.796E-03

     total cpu time spent up to now is     4373.0 secs

     total energy              =   -1895.75513193 Ry
     estimated scf accuracy    <       0.00000002 Ry

     total magnetization       =    -0.00 Bohr mag/cell
     absolute magnetization    =     0.01 Bohr mag/cell

     iteration # 44     ecut=    90.00 Ry     beta= 0.20
     Davidson diagonalization with overlap
     ethr =  1.56E-11,  avg # of iterations =  1.0

     negative rho (up, down):  1.792E-03 1.796E-03

     total cpu time spent up to now is     4410.1 secs

     total energy              =   -1895.75513191 Ry
     estimated scf accuracy    <       0.00000002 Ry

     total magnetization       =    -0.00 Bohr mag/cell
     absolute magnetization    =     0.01 Bohr mag/cell

     iteration # 45     ecut=    90.00 Ry     beta= 0.20
     Davidson diagonalization with overlap
     ethr =  1.56E-11,  avg # of iterations =  2.0

     negative rho (up, down):  1.792E-03 1.796E-03

     total cpu time spent up to now is     4452.6 secs

     total energy              =   -1895.75513191 Ry
     estimated scf accuracy    <       0.00000002 Ry

     total magnetization       =    -0.00 Bohr mag/cell
     absolute magnetization    =     0.01 Bohr mag/cell

     iteration # 46     ecut=    90.00 Ry     beta= 0.20
     Davidson diagonalization with overlap
     ethr =  1.56E-11,  avg # of iterations =  1.0

     negative rho (up, down):  1.792E-03 1.796E-03

     total cpu time spent up to now is     4490.6 secs

     total energy              =   -1895.75513185 Ry
     estimated scf accuracy    <       0.00000003 Ry

     total magnetization       =    -0.00 Bohr mag/cell
     absolute magnetization    =     0.01 Bohr mag/cell

     iteration # 47     ecut=    90.00 Ry     beta= 0.20
     Davidson diagonalization with overlap
     ethr =  1.56E-11,  avg # of iterations =  4.4

     negative rho (up, down):  1.793E-03 1.796E-03

     total cpu time spent up to now is     4550.5 secs

     total energy              =   -1895.75513188 Ry
     estimated scf accuracy    <       0.00000004 Ry

     total magnetization       =     0.00 Bohr mag/cell
     absolute magnetization    =     0.01 Bohr mag/cell

     iteration # 48     ecut=    90.00 Ry     beta= 0.20
     Davidson diagonalization with overlap
     ethr =  1.56E-11,  avg # of iterations =  1.5

     negative rho (up, down):  1.793E-03 1.796E-03

     total cpu time spent up to now is     4590.8 secs

     total energy              =   -1895.75513185 Ry
     estimated scf accuracy    <       0.00000002 Ry

     total magnetization       =     0.00 Bohr mag/cell
     absolute magnetization    =     0.01 Bohr mag/cell

     iteration # 49     ecut=    90.00 Ry     beta= 0.20
     Davidson diagonalization with overlap
     ethr =  1.56E-11,  avg # of iterations =  4.5

     negative rho (up, down):  1.793E-03 1.795E-03

     total cpu time spent up to now is     4647.4 secs

     total energy              =   -1895.75513186 Ry
     estimated scf accuracy    <       0.00000004 Ry

     total magnetization       =     0.00 Bohr mag/cell
     absolute magnetization    =     0.01 Bohr mag/cell

     iteration # 50     ecut=    90.00 Ry     beta= 0.20
     Davidson diagonalization with overlap
     ethr =  1.56E-11,  avg # of iterations =  2.1

     negative rho (up, down):  1.793E-03 1.796E-03

     Magnetic moment per site:
     atom:    1    charge:   11.6559    magn:   -0.0002    constr:    0.0000
     atom:    2    charge:   15.1478    magn:    0.0000    constr:    0.0000
     atom:    3    charge:   11.5730    magn:    0.0026    constr:    0.0000
     atom:    4    charge:   15.1628    magn:   -0.0006    constr:    0.0000
     atom:    5    charge:   11.5879    magn:    0.0006    constr:    0.0000
     atom:    6    charge:   15.1266    magn:    0.0003    constr:    0.0000
     atom:    7    charge:   11.6156    magn:   -0.0008    constr:    0.0000
     atom:    8    charge:   15.1489    magn:    0.0001    constr:    0.0000

     total cpu time spent up to now is     4691.2 secs

     End of self-consistent calculation

     Number of k-points >= 100: set verbosity='high' to print the bands.

     the Fermi energy is    16.9473 ev

!    total energy              =   -1895.75513187 Ry
     estimated scf accuracy    <          4.3E-09 Ry
     smearing contrib. (-TS)   =      -0.00812058 Ry
     internal energy E=F+TS    =   -1895.74701129 Ry

     The total energy is F=E-TS. E is the sum of the following terms:
     one-electron contribution =    -945.38528221 Ry
     hartree contribution      =     540.10514231 Ry
     xc contribution           =    -219.75946272 Ry
     ewald contribution        =   -1270.70740868 Ry

     total magnetization       =     0.00 Bohr mag/cell
     absolute magnetization    =     0.01 Bohr mag/cell

     convergence has been achieved in  50 iterations

     negative rho (up, down):  1.793E-03 1.796E-03

     Forces acting on atoms (cartesian axes, Ry/au):

     atom    1 type  1   force =     0.00001287    0.00044797    0.00085848
     atom    2 type  2   force =     0.00224403   -0.00087977   -0.00051411
     atom    3 type  1   force =    -0.00196592   -0.00344721    0.00203041
     atom    4 type  2   force =     0.00320280    0.00489766   -0.00055360
     atom    5 type  1   force =    -0.00356900   -0.00187678    0.00085716
     atom    6 type  2   force =     0.00425898   -0.00112200   -0.00052816
     atom    7 type  1   force =     0.00002865    0.00023318   -0.00155148
     atom    8 type  2   force =    -0.00421241    0.00174694   -0.00059869

     Total force =     0.011033     Total SCF correction =     0.000222


     Computing stress (Cartesian axis) and pressure


     negative rho (up, down):  1.793E-03 1.796E-03
          total   stress  (Ry/bohr**3)                   (kbar)     P=     -176.32
  -0.00095576   0.00005533  -0.00000946         -140.60        8.14       -1.39
   0.00005533  -0.00140861  -0.00008673            8.14     -207.21      -12.76
  -0.00000946  -0.00008673  -0.00123136           -1.39      -12.76     -181.14

     Energy error            =      4.7E-03
     Gradient error          =      4.9E-03

     number of scf cycles    =   9
     number of bfgs steps    =   4

     energy   old            =   -1895.7598266521 Ry
     energy   new            =   -1895.7551318695 Ry

     CASE: energy  _new > energy  _old

     new trust radius        =       0.0000000000 bohr

     trust_radius < trust_radius_min

     resetting bfgs history

     new conv_thr            =       0.0000000100 Ry


ATOMIC_POSITIONS (angstrom)
Cr            0.6074112696        2.0271359998       -1.1940357283
Co            2.7259971002        0.3870434832        2.3308153667
Cr            0.4264160753       -0.4447709239        2.2288443599
Co            1.8839080165        2.7326474192        1.0557840072
Cr            1.6957205142        0.4369127329        0.0085478733
Co           -0.4254495038        1.8853007238        1.0801425604
Cr            2.7661635987        2.6490344780        3.3332408244
Co           -0.6231386257       -0.4221105353        0.0329990136



     Writing output data file ./pwscf.save/
     NEW-OLD atomic charge density approx. for the potential

     Check: negative core charge=   -0.000010

     negative rho (up, down):  1.799E-03 1.802E-03
     Generating pointlists ...

     total cpu time spent up to now is     4716.6 secs

     Self-consistent Calculation

     iteration #  1     ecut=    90.00 Ry     beta= 0.20
     Davidson diagonalization with overlap
     ethr =  1.00E-06,  avg # of iterations =  4.8

     negative rho (up, down):  1.799E-03 1.802E-03

     total cpu time spent up to now is     4799.0 secs

     total energy              =   -1895.75519444 Ry
     estimated scf accuracy    <       0.00016280 Ry

     total magnetization       =     0.00 Bohr mag/cell
     absolute magnetization    =     0.01 Bohr mag/cell

     iteration #  2     ecut=    90.00 Ry     beta= 0.20
     Davidson diagonalization with overlap
     ethr =  1.31E-07,  avg # of iterations =  4.4

     negative rho (up, down):  1.800E-03 1.802E-03

     total cpu time spent up to now is     4853.2 secs

     total energy              =   -1895.75512909 Ry
     estimated scf accuracy    <       0.00378459 Ry

     total magnetization       =     0.00 Bohr mag/cell
     absolute magnetization    =     0.01 Bohr mag/cell

     iteration #  3     ecut=    90.00 Ry     beta= 0.20
     Davidson diagonalization with overlap
     ethr =  1.31E-07,  avg # of iterations =  2.9

     negative rho (up, down):  1.799E-03 1.802E-03

     total cpu time spent up to now is     4898.8 secs

     total energy              =   -1895.75523841 Ry
     estimated scf accuracy    <       0.00004753 Ry

     total magnetization       =     0.00 Bohr mag/cell
     absolute magnetization    =     0.01 Bohr mag/cell

     iteration #  4     ecut=    90.00 Ry     beta= 0.20
     Davidson diagonalization with overlap
     ethr =  3.83E-08,  avg # of iterations =  3.5

     negative rho (up, down):  1.800E-03 1.802E-03

     total cpu time spent up to now is     4944.3 secs

     total energy              =   -1895.75524099 Ry
     estimated scf accuracy    <       0.00002867 Ry

     total magnetization       =     0.00 Bohr mag/cell
     absolute magnetization    =     0.01 Bohr mag/cell

     iteration #  5     ecut=    90.00 Ry     beta= 0.20
     Davidson diagonalization with overlap
     ethr =  2.31E-08,  avg # of iterations =  1.7

     negative rho (up, down):  1.800E-03 1.802E-03

     total cpu time spent up to now is     4987.9 secs

     total energy              =   -1895.75524127 Ry
     estimated scf accuracy    <       0.00005370 Ry

     total magnetization       =     0.00 Bohr mag/cell
     absolute magnetization    =     0.01 Bohr mag/cell

     iteration #  6     ecut=    90.00 Ry     beta= 0.20
     Davidson diagonalization with overlap
     ethr =  2.31E-08,  avg # of iterations =  1.0

     negative rho (up, down):  1.800E-03 1.802E-03

     total cpu time spent up to now is     5025.3 secs

     total energy              =   -1895.75524274 Ry
     estimated scf accuracy    <       0.00000474 Ry

     total magnetization       =     0.00 Bohr mag/cell
     absolute magnetization    =     0.01 Bohr mag/cell

     iteration #  7     ecut=    90.00 Ry     beta= 0.20
     Davidson diagonalization with overlap
     ethr =  3.83E-09,  avg # of iterations =  1.8

     negative rho (up, down):  1.800E-03 1.802E-03

     total cpu time spent up to now is     5066.4 secs

     total energy              =   -1895.75524267 Ry
     estimated scf accuracy    <       0.00000282 Ry

     total magnetization       =     0.00 Bohr mag/cell
     absolute magnetization    =     0.01 Bohr mag/cell

     iteration #  8     ecut=    90.00 Ry     beta= 0.20
     Davidson diagonalization with overlap
     ethr =  2.27E-09,  avg # of iterations =  1.1

     negative rho (up, down):  1.800E-03 1.802E-03

     total cpu time spent up to now is     5104.6 secs

     total energy              =   -1895.75524282 Ry
     estimated scf accuracy    <       0.00000170 Ry

     total magnetization       =     0.00 Bohr mag/cell
     absolute magnetization    =     0.01 Bohr mag/cell

     iteration #  9     ecut=    90.00 Ry     beta= 0.20
     Davidson diagonalization with overlap
     ethr =  1.37E-09,  avg # of iterations =  1.2

     negative rho (up, down):  1.800E-03 1.802E-03

     total cpu time spent up to now is     5143.2 secs

     total energy              =   -1895.75524282 Ry
     estimated scf accuracy    <       0.00000168 Ry

     total magnetization       =     0.00 Bohr mag/cell
     absolute magnetization    =     0.01 Bohr mag/cell

     iteration # 10     ecut=    90.00 Ry     beta= 0.20
     Davidson diagonalization with overlap
     ethr =  1.36E-09,  avg # of iterations =  1.0

     negative rho (up, down):  1.800E-03 1.802E-03

     total cpu time spent up to now is     5181.0 secs

     total energy              =   -1895.75524285 Ry
     estimated scf accuracy    <       0.00000050 Ry

     total magnetization       =     0.00 Bohr mag/cell
     absolute magnetization    =     0.01 Bohr mag/cell

     iteration # 11     ecut=    90.00 Ry     beta= 0.20
     Davidson diagonalization with overlap
     ethr =  4.00E-10,  avg # of iterations =  1.3

     negative rho (up, down):  1.800E-03 1.802E-03

     total cpu time spent up to now is     5219.8 secs

     total energy              =   -1895.75524287 Ry
     estimated scf accuracy    <       0.00000003 Ry

     total magnetization       =     0.00 Bohr mag/cell
     absolute magnetization    =     0.01 Bohr mag/cell

     iteration # 12     ecut=    90.00 Ry     beta= 0.20
     Davidson diagonalization with overlap
     ethr =  2.38E-11,  avg # of iterations =  5.1

     negative rho (up, down):  1.800E-03 1.802E-03

     Magnetic moment per site:
     atom:    1    charge:   11.6559    magn:   -0.0003    constr:    0.0000
     atom:    2    charge:   15.1475    magn:    0.0001    constr:    0.0000
     atom:    3    charge:   11.5730    magn:    0.0028    constr:    0.0000
     atom:    4    charge:   15.1626    magn:   -0.0008    constr:    0.0000
     atom:    5    charge:   11.5877    magn:    0.0006    constr:    0.0000
     atom:    6    charge:   15.1266    magn:    0.0000    constr:    0.0000
     atom:    7    charge:   11.6155    magn:   -0.0008    constr:    0.0000
     atom:    8    charge:   15.1490    magn:    0.0001    constr:    0.0000

     total cpu time spent up to now is     5271.8 secs

     End of self-consistent calculation

     Number of k-points >= 100: set verbosity='high' to print the bands.

     the Fermi energy is    16.9473 ev

!    total energy              =   -1895.75524287 Ry
     estimated scf accuracy    <          8.4E-09 Ry
     smearing contrib. (-TS)   =      -0.00811936 Ry
     internal energy E=F+TS    =   -1895.74712351 Ry

     The total energy is F=E-TS. E is the sum of the following terms:
     one-electron contribution =    -945.34154332 Ry
     hartree contribution      =     540.08231691 Ry
     xc contribution           =    -219.75894667 Ry
     ewald contribution        =   -1270.72895043 Ry

     total magnetization       =     0.00 Bohr mag/cell
     absolute magnetization    =     0.01 Bohr mag/cell

     convergence has been achieved in  12 iterations

     negative rho (up, down):  1.800E-03 1.802E-03

     Forces acting on atoms (cartesian axes, Ry/au):

     atom    1 type  1   force =     0.00023572    0.00040845    0.00082288
     atom    2 type  2   force =     0.00199533   -0.00061665   -0.00044330
     atom    3 type  1   force =    -0.00168703   -0.00320577    0.00172055
     atom    4 type  2   force =     0.00321182    0.00435537   -0.00054765
     atom    5 type  1   force =    -0.00349572   -0.00155951    0.00066778
     atom    6 type  2   force =     0.00396859   -0.00081644   -0.00043330
     atom    7 type  1   force =    -0.00019909    0.00004191   -0.00149623
     atom    8 type  2   force =    -0.00402961    0.00139265   -0.00029073

     Total force =     0.010167     Total SCF correction =     0.000459


     Computing stress (Cartesian axis) and pressure


     negative rho (up, down):  1.800E-03 1.802E-03
          total   stress  (Ry/bohr**3)                   (kbar)     P=     -176.76
  -0.00095779   0.00005476  -0.00000893         -140.90        8.05       -1.31
   0.00005476  -0.00141205  -0.00008673            8.05     -207.72      -12.76
  -0.00000893  -0.00008673  -0.00123503           -1.31      -12.76     -181.68

     Energy error            =      4.8E-03
     Gradient error          =      4.4E-03

     number of scf cycles    =  12
     number of bfgs steps    =   5

     energy   old            =   -1895.7600135191 Ry
     energy   new            =   -1895.7552428744 Ry

     CASE: energy  _new > energy  _old


 %%%%%%%%%%%%%%%%%%%%%%%%%%%%%%%%%%%%%%%%%%%%%%%%%%%%%%%%%%%%%%%%%%%%%%%%%%%%%%
     Error in routine bfgs (1):
     dE0s is positive which should never happen
 %%%%%%%%%%%%%%%%%%%%%%%%%%%%%%%%%%%%%%%%%%%%%%%%%%%%%%%%%%%%%%%%%%%%%%%%%%%%%%

     stopping ...
Abort(1) on node 0 (rank 0 in comm 0): application called MPI_Abort(MPI_COMM_WORLD, 1) - process 0
