
     Program PWSCF v.6.7MaX starts on 22Mar2022 at 10:47:30 

     This program is part of the open-source Quantum ESPRESSO suite
     for quantum simulation of materials; please cite
         "P. Giannozzi et al., J. Phys.:Condens. Matter 21 395502 (2009);
         "P. Giannozzi et al., J. Phys.:Condens. Matter 29 465901 (2017);
          URL http://www.quantum-espresso.org", 
     in publications or presentations arising from this work. More details at
     http://www.quantum-espresso.org/quote

     Parallel version (MPI), running on    24 processors

     MPI processes distributed on     1 nodes
     R & G space division:  proc/nbgrp/npool/nimage =      24
     Reading input from /home/kevin/QE_CoCrFeMnNi/CoCrFeMnNi/Opt/binary/Opt-B1-CoCr/Mix/elastic/Chg-2-B1-CoCr.in

     Current dimensions of program PWSCF are:
     Max number of different atomic species (ntypx) = 10
     Max number of k-points (npk) =  40000
     Max angular momentum in pseudopotentials (lmaxx) =  3

     Subspace diagonalization in iterative solution of the eigenvalue problem:
     a serial algorithm will be used

     Found symmetry operation: I + ( -0.0000 -0.5000 -0.5000)
     This is a supercell, fractional translations are disabled

     Parallelization info
     --------------------
     sticks:   dense  smooth     PW     G-vecs:    dense   smooth      PW
     Min         271      90     25                16475     3174     478
     Max         272      91     27                16478     3177     481
     Sum        6509    2177    611               395439    76205   11495



     bravais-lattice index     =            0
     lattice parameter (alat)  =       8.7200  a.u.
     unit-cell volume          =     659.7287 (a.u.)^3
     number of atoms/cell      =            8
     number of atomic types    =            2
     number of electrons       =       124.00
     number of Kohn-Sham states=           74
     kinetic-energy cutoff     =      90.0000  Ry
     charge density cutoff     =    1080.0000  Ry
     scf convergence threshold =      1.0E-08
     mixing beta               =       0.2000
     number of iterations used =            8  plain     mixing
     energy convergence thresh.=      1.0E-05
     force convergence thresh. =      1.0E-04
     Exchange-correlation= SLA  PW   PBE  PBE
                           (   1   4   3   4   0   0   0)
     nstep                     =          100


     celldm(1)=   8.719952  celldm(2)=   0.000000  celldm(3)=   0.000000
     celldm(4)=   0.000000  celldm(5)=   0.000000  celldm(6)=   0.000000

     crystal axes: (cart. coord. in units of alat)
               a(1) = (   1.000000   0.000000   0.000000 )  
               a(2) = (   0.000000   0.995000   0.000000 )  
               a(3) = (   0.000000   0.000000   1.000000 )  

     reciprocal axes: (cart. coord. in units 2 pi/alat)
               b(1) = (  1.000000  0.000000  0.000000 )  
               b(2) = (  0.000000  1.005025  0.000000 )  
               b(3) = (  0.000000  0.000000  1.000000 )  


     PseudoPot. # 1 for Cr read from file:
     /opt/QEpot/SSSP_efficiency_pseudos/cr_pbe_v1.5.uspp.F.UPF
     MD5 check sum: 0d52af634a40206e4dee301ad30da4bf
     Pseudo is Ultrasoft + core correction, Zval = 14.0
     Generated by new atomic code, or converted to UPF format
     Using radial grid of  857 points,  6 beta functions with: 
                l(1) =   0
                l(2) =   0
                l(3) =   1
                l(4) =   1
                l(5) =   2
                l(6) =   2
     Q(r) pseudized with  8 coefficients,  rinner =    0.950   0.950   0.950
                                                       0.950   0.950

     PseudoPot. # 2 for Co read from file:
     /opt/QEpot/SSSP_efficiency_pseudos/Co_pbe_v1.2.uspp.F.UPF
     MD5 check sum: 5f91765df6ddd3222702df6e7b74a16d
     Pseudo is Ultrasoft + core correction, Zval = 17.0
     Generated by new atomic code, or converted to UPF format
     Using radial grid of  863 points,  6 beta functions with: 
                l(1) =   0
                l(2) =   0
                l(3) =   1
                l(4) =   1
                l(5) =   2
                l(6) =   2
     Q(r) pseudized with  8 coefficients,  rinner =    1.200   1.200   1.200
                                                       1.200   1.200

     atomic species   valence    mass     pseudopotential
        Cr            14.00    51.99610     Cr( 1.00)
        Co            17.00    58.93300     Co( 1.00)

     Starting magnetic structure 
     atomic species   magnetization
        Cr           0.000
        Co           0.000

     No symmetry found



   Cartesian axes

     site n.     atom                  positions (alat units)
         1           Cr  tau(   1) = (  -0.0009522   0.4965837  -0.0002686  )
         2           Co  tau(   2) = (   0.4989947  -0.0006648   0.4995537  )
         3           Cr  tau(   3) = (  -0.0009524  -0.0009162   0.4997316  )
         4           Co  tau(   4) = (   0.4989948   0.4968355  -0.0004459  )
         5           Cr  tau(   5) = (   0.4994141  -0.0000390  -0.0009135  )
         6           Co  tau(   6) = (  -0.0007996   0.4965501   0.4997592  )
         7           Cr  tau(   7) = (   0.4994142   0.4974610   0.4990869  )
         8           Co  tau(   8) = (  -0.0007995  -0.0009500  -0.0002402  )

     number of k points=   112  Gaussian smearing, width (Ry)=  0.0100

     Number of k-points >= 100: set verbosity='high' to print them.

     Dense  grid:   395439 G-vectors     FFT dimensions: (  96,  96,  96)

     Smooth grid:    76205 G-vectors     FFT dimensions: (  54,  54,  54)

     Estimated max dynamical RAM per process >     173.88 MB

     Estimated total dynamical RAM >       4.08 GB

     Check: negative core charge=   -0.000010
     Generating pointlists ...
     new r_m :   0.2050 (alat units)  1.7872 (a.u.) for type    1
     new r_m :   0.2050 (alat units)  1.7872 (a.u.) for type    2

     Initial potential from superposition of free atoms

     starting charge  115.99991, renormalised to  124.00000

     negative rho (up, down):  1.659E-03 1.659E-03
     Starting wfcs are   92 randomized atomic wfcs

     total cpu time spent up to now is       20.5 secs

     Self-consistent Calculation

     iteration #  1     ecut=    90.00 Ry     beta= 0.20
     Davidson diagonalization with overlap
     ethr =  1.00E-02,  avg # of iterations =  3.0

     negative rho (up, down):  1.154E-03 1.153E-03

     total cpu time spent up to now is       85.4 secs

     total energy              =   -1872.78837712 Ry
     estimated scf accuracy    <     111.62310047 Ry

     total magnetization       =    -0.00 Bohr mag/cell
     absolute magnetization    =     0.01 Bohr mag/cell

     iteration #  2     ecut=    90.00 Ry     beta= 0.20
     Davidson diagonalization with overlap
     ethr =  1.00E-02,  avg # of iterations =  5.2

     negative rho (up, down):  1.783E-03 1.783E-03

     total cpu time spent up to now is      162.4 secs

     total energy              =   -1895.30328952 Ry
     estimated scf accuracy    <      61.22459177 Ry

     total magnetization       =     0.00 Bohr mag/cell
     absolute magnetization    =     0.01 Bohr mag/cell

     iteration #  3     ecut=    90.00 Ry     beta= 0.20
     Davidson diagonalization with overlap
     ethr =  1.00E-02,  avg # of iterations =  2.7

     negative rho (up, down):  5.173E-03 5.176E-03

     total cpu time spent up to now is      211.5 secs

     total energy              =   -1886.54734100 Ry
     estimated scf accuracy    <      19.76287643 Ry

     total magnetization       =     0.00 Bohr mag/cell
     absolute magnetization    =     0.01 Bohr mag/cell

     iteration #  4     ecut=    90.00 Ry     beta= 0.20
     Davidson diagonalization with overlap
     ethr =  1.00E-02,  avg # of iterations =  5.4

     negative rho (up, down):  1.783E-03 1.784E-03

     total cpu time spent up to now is      290.3 secs

     total energy              =   -1882.85272060 Ry
     estimated scf accuracy    <     182.55313344 Ry

     total magnetization       =     0.01 Bohr mag/cell
     absolute magnetization    =     0.02 Bohr mag/cell

     iteration #  5     ecut=    90.00 Ry     beta= 0.20
     Davidson diagonalization with overlap
     ethr =  1.00E-02,  avg # of iterations =  5.4

     negative rho (up, down):  1.780E-03 1.780E-03

     total cpu time spent up to now is      360.9 secs

     total energy              =   -1895.38887302 Ry
     estimated scf accuracy    <       6.16755743 Ry

     total magnetization       =    -0.00 Bohr mag/cell
     absolute magnetization    =     0.03 Bohr mag/cell

     iteration #  6     ecut=    90.00 Ry     beta= 0.20
     Davidson diagonalization with overlap
     ethr =  4.97E-03,  avg # of iterations =  1.3

     negative rho (up, down):  1.767E-03 1.768E-03

     total cpu time spent up to now is      400.0 secs

     total energy              =   -1895.43435267 Ry
     estimated scf accuracy    <       2.61027590 Ry

     total magnetization       =     0.03 Bohr mag/cell
     absolute magnetization    =     0.04 Bohr mag/cell

     iteration #  7     ecut=    90.00 Ry     beta= 0.20
     Davidson diagonalization with overlap
     ethr =  2.11E-03,  avg # of iterations =  1.7

     negative rho (up, down):  1.740E-03 1.742E-03

     total cpu time spent up to now is      439.8 secs

     total energy              =   -1895.30420555 Ry
     estimated scf accuracy    <       2.23177805 Ry

     total magnetization       =     0.02 Bohr mag/cell
     absolute magnetization    =     0.02 Bohr mag/cell

     iteration #  8     ecut=    90.00 Ry     beta= 0.20
     Davidson diagonalization with overlap
     ethr =  1.80E-03,  avg # of iterations =  1.4

     negative rho (up, down):  1.700E-03 1.703E-03

     total cpu time spent up to now is      479.0 secs

     total energy              =   -1895.34614036 Ry
     estimated scf accuracy    <       0.30401062 Ry

     total magnetization       =     0.01 Bohr mag/cell
     absolute magnetization    =     0.02 Bohr mag/cell

     iteration #  9     ecut=    90.00 Ry     beta= 0.20
     Davidson diagonalization with overlap
     ethr =  2.45E-04,  avg # of iterations =  5.8

     negative rho (up, down):  1.642E-03 1.646E-03

     total cpu time spent up to now is      534.2 secs

     total energy              =   -1895.37628359 Ry
     estimated scf accuracy    <       0.05148054 Ry

     total magnetization       =     0.01 Bohr mag/cell
     absolute magnetization    =     0.02 Bohr mag/cell

     iteration # 10     ecut=    90.00 Ry     beta= 0.20
     Davidson diagonalization with overlap
     ethr =  4.15E-05,  avg # of iterations =  5.7

     negative rho (up, down):  1.605E-03 1.608E-03

     total cpu time spent up to now is      592.9 secs

     total energy              =   -1895.44079247 Ry
     estimated scf accuracy    <       0.51339373 Ry

     total magnetization       =     0.01 Bohr mag/cell
     absolute magnetization    =     0.02 Bohr mag/cell

     iteration # 11     ecut=    90.00 Ry     beta= 0.20
     Davidson diagonalization with overlap
     ethr =  4.15E-05,  avg # of iterations =  2.3

     negative rho (up, down):  1.617E-03 1.622E-03

     total cpu time spent up to now is      637.3 secs

     total energy              =   -1895.32048681 Ry
     estimated scf accuracy    <       0.96055592 Ry

     total magnetization       =     0.01 Bohr mag/cell
     absolute magnetization    =     0.02 Bohr mag/cell

     iteration # 12     ecut=    90.00 Ry     beta= 0.20
     Davidson diagonalization with overlap
     ethr =  4.15E-05,  avg # of iterations =  5.4

     negative rho (up, down):  1.607E-03 1.612E-03

     total cpu time spent up to now is      702.1 secs

     total energy              =   -1895.38774409 Ry
     estimated scf accuracy    <       0.11636002 Ry

     total magnetization       =     0.02 Bohr mag/cell
     absolute magnetization    =     0.02 Bohr mag/cell

     iteration # 13     ecut=    90.00 Ry     beta= 0.20
     Davidson diagonalization with overlap
     ethr =  4.15E-05,  avg # of iterations =  1.1

     negative rho (up, down):  1.593E-03 1.599E-03

     total cpu time spent up to now is      740.4 secs

     total energy              =   -1895.39195417 Ry
     estimated scf accuracy    <       0.00930025 Ry

     total magnetization       =     0.01 Bohr mag/cell
     absolute magnetization    =     0.02 Bohr mag/cell

     iteration # 14     ecut=    90.00 Ry     beta= 0.20
     Davidson diagonalization with overlap
     ethr =  7.50E-06,  avg # of iterations =  4.5

     negative rho (up, down):  1.590E-03 1.596E-03

     total cpu time spent up to now is      804.0 secs

     total energy              =   -1895.38031042 Ry
     estimated scf accuracy    <       0.20777560 Ry

     total magnetization       =     0.02 Bohr mag/cell
     absolute magnetization    =     0.02 Bohr mag/cell

     iteration # 15     ecut=    90.00 Ry     beta= 0.20
     Davidson diagonalization with overlap
     ethr =  7.50E-06,  avg # of iterations =  5.8

     negative rho (up, down):  1.584E-03 1.590E-03

     total cpu time spent up to now is      867.5 secs

     total energy              =   -1895.39223821 Ry
     estimated scf accuracy    <       0.00990268 Ry

     total magnetization       =     0.02 Bohr mag/cell
     absolute magnetization    =     0.02 Bohr mag/cell

     iteration # 16     ecut=    90.00 Ry     beta= 0.20
     Davidson diagonalization with overlap
     ethr =  7.50E-06,  avg # of iterations =  1.2

     negative rho (up, down):  1.595E-03 1.601E-03

     total cpu time spent up to now is      905.8 secs

     total energy              =   -1895.39225462 Ry
     estimated scf accuracy    <       0.00305004 Ry

     total magnetization       =     0.02 Bohr mag/cell
     absolute magnetization    =     0.02 Bohr mag/cell

     iteration # 17     ecut=    90.00 Ry     beta= 0.20
     Davidson diagonalization with overlap
     ethr =  2.46E-06,  avg # of iterations =  2.1

     negative rho (up, down):  1.601E-03 1.608E-03

     total cpu time spent up to now is      948.9 secs

     total energy              =   -1895.39226102 Ry
     estimated scf accuracy    <       0.00037760 Ry

     total magnetization       =     0.02 Bohr mag/cell
     absolute magnetization    =     0.02 Bohr mag/cell

     iteration # 18     ecut=    90.00 Ry     beta= 0.20
     Davidson diagonalization with overlap
     ethr =  3.05E-07,  avg # of iterations =  6.4

     negative rho (up, down):  1.599E-03 1.607E-03

     total cpu time spent up to now is     1010.6 secs

     total energy              =   -1895.39238469 Ry
     estimated scf accuracy    <       0.00391882 Ry

     total magnetization       =     0.02 Bohr mag/cell
     absolute magnetization    =     0.02 Bohr mag/cell

     iteration # 19     ecut=    90.00 Ry     beta= 0.20
     Davidson diagonalization with overlap
     ethr =  3.05E-07,  avg # of iterations =  2.3

     negative rho (up, down):  1.605E-03 1.614E-03

     total cpu time spent up to now is     1053.2 secs

     total energy              =   -1895.39224907 Ry
     estimated scf accuracy    <       0.00237127 Ry

     total magnetization       =     0.02 Bohr mag/cell
     absolute magnetization    =     0.02 Bohr mag/cell

     iteration # 20     ecut=    90.00 Ry     beta= 0.20
     Davidson diagonalization with overlap
     ethr =  3.05E-07,  avg # of iterations =  4.4

     negative rho (up, down):  1.606E-03 1.615E-03

     total cpu time spent up to now is     1102.8 secs

     total energy              =   -1895.39233782 Ry
     estimated scf accuracy    <       0.00004618 Ry

     total magnetization       =     0.02 Bohr mag/cell
     absolute magnetization    =     0.02 Bohr mag/cell

     iteration # 21     ecut=    90.00 Ry     beta= 0.20
     Davidson diagonalization with overlap
     ethr =  3.72E-08,  avg # of iterations =  4.9

     negative rho (up, down):  1.606E-03 1.616E-03

     total cpu time spent up to now is     1154.5 secs

     total energy              =   -1895.39234196 Ry
     estimated scf accuracy    <       0.00001729 Ry

     total magnetization       =     0.02 Bohr mag/cell
     absolute magnetization    =     0.02 Bohr mag/cell

     iteration # 22     ecut=    90.00 Ry     beta= 0.20
     Davidson diagonalization with overlap
     ethr =  1.39E-08,  avg # of iterations =  2.2

     negative rho (up, down):  1.606E-03 1.616E-03

     total cpu time spent up to now is     1197.2 secs

     total energy              =   -1895.39234280 Ry
     estimated scf accuracy    <       0.00000391 Ry

     total magnetization       =     0.02 Bohr mag/cell
     absolute magnetization    =     0.02 Bohr mag/cell

     iteration # 23     ecut=    90.00 Ry     beta= 0.20
     Davidson diagonalization with overlap
     ethr =  3.15E-09,  avg # of iterations =  2.7

     negative rho (up, down):  1.605E-03 1.616E-03

     total cpu time spent up to now is     1241.2 secs

     total energy              =   -1895.39234272 Ry
     estimated scf accuracy    <       0.00000284 Ry

     total magnetization       =     0.02 Bohr mag/cell
     absolute magnetization    =     0.02 Bohr mag/cell

     iteration # 24     ecut=    90.00 Ry     beta= 0.20
     Davidson diagonalization with overlap
     ethr =  2.29E-09,  avg # of iterations =  1.2

     negative rho (up, down):  1.605E-03 1.617E-03

     total cpu time spent up to now is     1279.5 secs

     total energy              =   -1895.39234280 Ry
     estimated scf accuracy    <       0.00000087 Ry

     total magnetization       =     0.02 Bohr mag/cell
     absolute magnetization    =     0.02 Bohr mag/cell

     iteration # 25     ecut=    90.00 Ry     beta= 0.20
     Davidson diagonalization with overlap
     ethr =  7.03E-10,  avg # of iterations =  3.8

     negative rho (up, down):  1.604E-03 1.617E-03

     total cpu time spent up to now is     1330.4 secs

     total energy              =   -1895.39234288 Ry
     estimated scf accuracy    <       0.00000176 Ry

     total magnetization       =     0.02 Bohr mag/cell
     absolute magnetization    =     0.02 Bohr mag/cell

     iteration # 26     ecut=    90.00 Ry     beta= 0.20
     Davidson diagonalization with overlap
     c_bands:  1 eigenvalues not converged
     ethr =  7.03E-10,  avg # of iterations =  2.2

     negative rho (up, down):  1.604E-03 1.617E-03

     total cpu time spent up to now is     1373.9 secs

     total energy              =   -1895.39234294 Ry
     estimated scf accuracy    <       0.00000426 Ry

     total magnetization       =     0.02 Bohr mag/cell
     absolute magnetization    =     0.02 Bohr mag/cell

     iteration # 27     ecut=    90.00 Ry     beta= 0.20
     Davidson diagonalization with overlap
     ethr =  7.03E-10,  avg # of iterations =  1.2

     negative rho (up, down):  1.604E-03 1.617E-03

     total cpu time spent up to now is     1412.1 secs

     total energy              =   -1895.39234297 Ry
     estimated scf accuracy    <       0.00000091 Ry

     total magnetization       =     0.03 Bohr mag/cell
     absolute magnetization    =     0.03 Bohr mag/cell

     iteration # 28     ecut=    90.00 Ry     beta= 0.20
     Davidson diagonalization with overlap
     ethr =  7.03E-10,  avg # of iterations =  1.5

     negative rho (up, down):  1.603E-03 1.617E-03

     total cpu time spent up to now is     1451.9 secs

     total energy              =   -1895.39234310 Ry
     estimated scf accuracy    <       0.00000025 Ry

     total magnetization       =     0.03 Bohr mag/cell
     absolute magnetization    =     0.03 Bohr mag/cell

     iteration # 29     ecut=    90.00 Ry     beta= 0.20
     Davidson diagonalization with overlap
     ethr =  2.00E-10,  avg # of iterations =  2.9

     negative rho (up, down):  1.604E-03 1.617E-03

     total cpu time spent up to now is     1495.5 secs

     total energy              =   -1895.39234307 Ry
     estimated scf accuracy    <       0.00000025 Ry

     total magnetization       =     0.03 Bohr mag/cell
     absolute magnetization    =     0.03 Bohr mag/cell

     iteration # 30     ecut=    90.00 Ry     beta= 0.20
     Davidson diagonalization with overlap
     ethr =  2.00E-10,  avg # of iterations =  1.0

     negative rho (up, down):  1.603E-03 1.617E-03

     total cpu time spent up to now is     1533.2 secs

     total energy              =   -1895.39234311 Ry
     estimated scf accuracy    <       0.00000026 Ry

     total magnetization       =     0.03 Bohr mag/cell
     absolute magnetization    =     0.03 Bohr mag/cell

     iteration # 31     ecut=    90.00 Ry     beta= 0.20
     Davidson diagonalization with overlap
     ethr =  2.00E-10,  avg # of iterations =  1.0

     negative rho (up, down):  1.604E-03 1.617E-03

     total cpu time spent up to now is     1570.9 secs

     total energy              =   -1895.39234298 Ry
     estimated scf accuracy    <       0.00000037 Ry

     total magnetization       =     0.03 Bohr mag/cell
     absolute magnetization    =     0.03 Bohr mag/cell

     iteration # 32     ecut=    90.00 Ry     beta= 0.20
     Davidson diagonalization with overlap
     ethr =  2.00E-10,  avg # of iterations =  1.1

     negative rho (up, down):  1.605E-03 1.617E-03

     total cpu time spent up to now is     1608.8 secs

     total energy              =   -1895.39234293 Ry
     estimated scf accuracy    <       0.00000030 Ry

     total magnetization       =     0.03 Bohr mag/cell
     absolute magnetization    =     0.03 Bohr mag/cell

     iteration # 33     ecut=    90.00 Ry     beta= 0.20
     Davidson diagonalization with overlap
     ethr =  2.00E-10,  avg # of iterations =  1.7

     negative rho (up, down):  1.606E-03 1.616E-03

     total cpu time spent up to now is     1649.1 secs

     total energy              =   -1895.39234280 Ry
     estimated scf accuracy    <       0.00000029 Ry

     total magnetization       =     0.02 Bohr mag/cell
     absolute magnetization    =     0.02 Bohr mag/cell

     iteration # 34     ecut=    90.00 Ry     beta= 0.20
     Davidson diagonalization with overlap
     ethr =  2.00E-10,  avg # of iterations =  2.8

     negative rho (up, down):  1.607E-03 1.615E-03

     total cpu time spent up to now is     1692.4 secs

     total energy              =   -1895.39234272 Ry
     estimated scf accuracy    <       0.00000033 Ry

     total magnetization       =     0.02 Bohr mag/cell
     absolute magnetization    =     0.02 Bohr mag/cell

     iteration # 35     ecut=    90.00 Ry     beta= 0.20
     Davidson diagonalization with overlap
     ethr =  2.00E-10,  avg # of iterations =  3.2

     negative rho (up, down):  1.607E-03 1.615E-03

     total cpu time spent up to now is     1737.0 secs

     total energy              =   -1895.39234272 Ry
     estimated scf accuracy    <       0.00000026 Ry

     total magnetization       =     0.02 Bohr mag/cell
     absolute magnetization    =     0.02 Bohr mag/cell

     iteration # 36     ecut=    90.00 Ry     beta= 0.20
     Davidson diagonalization with overlap
     ethr =  2.00E-10,  avg # of iterations =  1.6

     negative rho (up, down):  1.607E-03 1.614E-03

     total cpu time spent up to now is     1777.2 secs

     total energy              =   -1895.39234266 Ry
     estimated scf accuracy    <       0.00000032 Ry

     total magnetization       =     0.02 Bohr mag/cell
     absolute magnetization    =     0.02 Bohr mag/cell

     iteration # 37     ecut=    90.00 Ry     beta= 0.20
     Davidson diagonalization with overlap
     ethr =  2.00E-10,  avg # of iterations =  2.5

     negative rho (up, down):  1.608E-03 1.613E-03

     total cpu time spent up to now is     1819.9 secs

     total energy              =   -1895.39234263 Ry
     estimated scf accuracy    <       0.00000014 Ry

     total magnetization       =     0.02 Bohr mag/cell
     absolute magnetization    =     0.02 Bohr mag/cell

     iteration # 38     ecut=    90.00 Ry     beta= 0.20
     Davidson diagonalization with overlap
     ethr =  1.16E-10,  avg # of iterations =  3.6

     negative rho (up, down):  1.608E-03 1.612E-03

     total cpu time spent up to now is     1866.0 secs

     total energy              =   -1895.39234256 Ry
     estimated scf accuracy    <       0.00000041 Ry

     total magnetization       =     0.01 Bohr mag/cell
     absolute magnetization    =     0.01 Bohr mag/cell

     iteration # 39     ecut=    90.00 Ry     beta= 0.20
     Davidson diagonalization with overlap
     ethr =  1.16E-10,  avg # of iterations =  3.2

     negative rho (up, down):  1.609E-03 1.611E-03

     total cpu time spent up to now is     1911.5 secs

     total energy              =   -1895.39234259 Ry
     estimated scf accuracy    <       0.00000007 Ry

     total magnetization       =     0.01 Bohr mag/cell
     absolute magnetization    =     0.01 Bohr mag/cell

     iteration # 40     ecut=    90.00 Ry     beta= 0.20
     Davidson diagonalization with overlap
     ethr =  5.44E-11,  avg # of iterations =  4.1

     negative rho (up, down):  1.609E-03 1.611E-03

     total cpu time spent up to now is     1958.8 secs

     total energy              =   -1895.39234261 Ry
     estimated scf accuracy    <       0.00000005 Ry

     total magnetization       =     0.01 Bohr mag/cell
     absolute magnetization    =     0.01 Bohr mag/cell

     iteration # 41     ecut=    90.00 Ry     beta= 0.20
     Davidson diagonalization with overlap
     ethr =  4.27E-11,  avg # of iterations =  3.2

     negative rho (up, down):  1.609E-03 1.611E-03

     total cpu time spent up to now is     2006.4 secs

     total energy              =   -1895.39234259 Ry
     estimated scf accuracy    <       0.00000019 Ry

     total magnetization       =     0.01 Bohr mag/cell
     absolute magnetization    =     0.01 Bohr mag/cell

     iteration # 42     ecut=    90.00 Ry     beta= 0.20
     Davidson diagonalization with overlap
     ethr =  4.27E-11,  avg # of iterations =  2.5

     negative rho (up, down):  1.610E-03 1.610E-03

     total cpu time spent up to now is     2050.4 secs

     total energy              =   -1895.39234259 Ry
     estimated scf accuracy    <       0.00000006 Ry

     total magnetization       =     0.00 Bohr mag/cell
     absolute magnetization    =     0.01 Bohr mag/cell

     iteration # 43     ecut=    90.00 Ry     beta= 0.20
     Davidson diagonalization with overlap
     ethr =  4.27E-11,  avg # of iterations =  3.3

     negative rho (up, down):  1.610E-03 1.610E-03

     total cpu time spent up to now is     2095.7 secs

     total energy              =   -1895.39234261 Ry
     estimated scf accuracy    <       0.00000001 Ry

     total magnetization       =     0.00 Bohr mag/cell
     absolute magnetization    =     0.00 Bohr mag/cell

     iteration # 44     ecut=    90.00 Ry     beta= 0.20
     Davidson diagonalization with overlap
     ethr =  1.14E-11,  avg # of iterations =  3.9

     negative rho (up, down):  1.610E-03 1.610E-03

     total cpu time spent up to now is     2143.2 secs

     total energy              =   -1895.39234261 Ry
     estimated scf accuracy    <       0.00000002 Ry

     total magnetization       =     0.00 Bohr mag/cell
     absolute magnetization    =     0.00 Bohr mag/cell

     iteration # 45     ecut=    90.00 Ry     beta= 0.20
     Davidson diagonalization with overlap
     ethr =  1.14E-11,  avg # of iterations =  1.4

     negative rho (up, down):  1.610E-03 1.610E-03

     total cpu time spent up to now is     2182.3 secs

     total energy              =   -1895.39234261 Ry
     estimated scf accuracy    <       0.00000001 Ry

     total magnetization       =     0.00 Bohr mag/cell
     absolute magnetization    =     0.00 Bohr mag/cell

     iteration # 46     ecut=    90.00 Ry     beta= 0.20
     Davidson diagonalization with overlap
     ethr =  1.07E-11,  avg # of iterations =  1.3

     negative rho (up, down):  1.610E-03 1.610E-03

     total cpu time spent up to now is     2221.1 secs

     total energy              =   -1895.39234262 Ry
     estimated scf accuracy    <       0.00000001 Ry

     total magnetization       =     0.00 Bohr mag/cell
     absolute magnetization    =     0.00 Bohr mag/cell

     iteration # 47     ecut=    90.00 Ry     beta= 0.20
     Davidson diagonalization with overlap
     c_bands:  2 eigenvalues not converged
     ethr =  1.06E-11,  avg # of iterations =  1.9

     negative rho (up, down):  1.610E-03 1.610E-03

     Magnetic moment per site:
     atom:    1    charge:   11.7628    magn:   -0.0002    constr:    0.0000
     atom:    2    charge:   15.2913    magn:   -0.0000    constr:    0.0000
     atom:    3    charge:   11.7629    magn:    0.0006    constr:    0.0000
     atom:    4    charge:   15.2913    magn:   -0.0004    constr:    0.0000
     atom:    5    charge:   11.7629    magn:    0.0004    constr:    0.0000
     atom:    6    charge:   15.2913    magn:    0.0000    constr:    0.0000
     atom:    7    charge:   11.7629    magn:   -0.0008    constr:    0.0000
     atom:    8    charge:   15.2913    magn:    0.0013    constr:    0.0000

     total cpu time spent up to now is     2262.1 secs

     End of self-consistent calculation

     Number of k-points >= 100: set verbosity='high' to print the bands.

     the Fermi energy is    17.4617 ev

!    total energy              =   -1895.39234262 Ry
     estimated scf accuracy    <          7.2E-09 Ry
     smearing contrib. (-TS)   =      -0.01105471 Ry
     internal energy E=F+TS    =   -1895.38128791 Ry

     The total energy is F=E-TS. E is the sum of the following terms:
     one-electron contribution =    -966.57917473 Ry
     hartree contribution      =     551.55355954 Ry
     xc contribution           =    -220.28792365 Ry
     ewald contribution        =   -1260.06774908 Ry

     total magnetization       =     0.00 Bohr mag/cell
     absolute magnetization    =     0.00 Bohr mag/cell

     convergence has been achieved in  47 iterations

     negative rho (up, down):  1.610E-03 1.610E-03

     Forces acting on atoms (cartesian axes, Ry/au):

     atom    1 type  1   force =    -0.00017131   -0.00020311    0.00014523
     atom    2 type  2   force =    -0.00017368    0.00034737   -0.00026314
     atom    3 type  1   force =    -0.00017158   -0.00020300    0.00014614
     atom    4 type  2   force =    -0.00017363    0.00034701   -0.00026295
     atom    5 type  1   force =     0.00010309    0.00003689   -0.00001862
     atom    6 type  2   force =     0.00024197   -0.00018069    0.00013560
     atom    7 type  1   force =     0.00010312    0.00003641   -0.00001799
     atom    8 type  2   force =     0.00024202   -0.00018089    0.00013573

     Total force =     0.000931     Total SCF correction =     0.000004


     Computing stress (Cartesian axis) and pressure


     negative rho (up, down):  1.610E-03 1.610E-03
          total   stress  (Ry/bohr**3)                   (kbar)     P=       10.06
   0.00006186  -0.00000000  -0.00000001            9.10       -0.00       -0.00
  -0.00000000   0.00008142  -0.00000015           -0.00       11.98       -0.02
  -0.00000001  -0.00000015   0.00006179           -0.00       -0.02        9.09

     Energy error            =      3.6E-01
     Gradient error          =      3.5E-04

     number of scf cycles    =   3
     number of bfgs steps    =   2

     energy   old            =   -1895.7552250888 Ry
     energy   new            =   -1895.3923426163 Ry

     CASE: energy  _new > energy  _old

     new trust radius        =       0.0003070359 bohr
     new conv_thr            =       0.0000000100 Ry


ATOMIC_POSITIONS (angstrom)
Cr            0.6178544220        2.0164773515       -1.1944032370
Co            2.7268920979        0.3855464360        2.3315759232
Cr            0.4254912191       -0.4414399183        2.2275444231
Co            1.8960221425        2.7171428980        1.0562592806
Cr            1.7000014492        0.4361920593        0.0079423388
Co           -0.4186759598        1.8764392329        1.0799232883
Cr            2.7790055938        2.6357398465        3.3338671189
Co           -0.6233065526       -0.4211604951        0.0336291413



     Writing output data file ./pwscf.save/
     NEW-OLD atomic charge density approx. for the potential

     Check: negative core charge=   -0.000010

     negative rho (up, down):  1.950E-02 1.951E-02
     Generating pointlists ...
     new r_m :   0.2011 (alat units)  1.7537 (a.u.) for type    1

     total cpu time spent up to now is     2286.6 secs

     Self-consistent Calculation

     iteration #  1     ecut=    90.00 Ry     beta= 0.20
     Davidson diagonalization with overlap
     c_bands:  4 eigenvalues not converged
     c_bands:  2 eigenvalues not converged
     c_bands:  3 eigenvalues not converged
     c_bands:  5 eigenvalues not converged
     c_bands:  5 eigenvalues not converged
     c_bands:  5 eigenvalues not converged
     c_bands:  1 eigenvalues not converged
     c_bands:  5 eigenvalues not converged
     c_bands:  4 eigenvalues not converged
     c_bands:  3 eigenvalues not converged
     c_bands:  3 eigenvalues not converged
     c_bands:  4 eigenvalues not converged
     c_bands:  5 eigenvalues not converged
     c_bands:  5 eigenvalues not converged
     c_bands:  4 eigenvalues not converged
     c_bands:  5 eigenvalues not converged
     c_bands:  4 eigenvalues not converged
     c_bands:  3 eigenvalues not converged
     c_bands:  5 eigenvalues not converged
     c_bands:  3 eigenvalues not converged
     c_bands:  5 eigenvalues not converged
     c_bands:  2 eigenvalues not converged
     c_bands:  1 eigenvalues not converged
     c_bands:  4 eigenvalues not converged
     c_bands:  5 eigenvalues not converged
     c_bands:  2 eigenvalues not converged
     c_bands:  1 eigenvalues not converged
     c_bands:  5 eigenvalues not converged
     c_bands:  3 eigenvalues not converged
     c_bands:  5 eigenvalues not converged
     c_bands:  5 eigenvalues not converged
     c_bands:  5 eigenvalues not converged
     ethr =  1.00E-06,  avg # of iterations = 26.4

     negative rho (up, down):  8.133E-03 8.134E-03

     total cpu time spent up to now is     2674.4 secs

     total energy              =   -1892.59812488 Ry
     estimated scf accuracy    <      10.18138275 Ry

     total magnetization       =     0.00 Bohr mag/cell
     absolute magnetization    =     0.00 Bohr mag/cell

     iteration #  2     ecut=    90.00 Ry     beta= 0.20
     Davidson diagonalization with overlap
     ethr =  8.21E-03,  avg # of iterations =  3.9

     negative rho (up, down):  6.713E-03 6.714E-03

     total cpu time spent up to now is     2729.1 secs

     total energy              =   -1895.04509493 Ry
     estimated scf accuracy    <      35.18054217 Ry

     total magnetization       =    -0.00 Bohr mag/cell
     absolute magnetization    =     0.00 Bohr mag/cell

     iteration #  3     ecut=    90.00 Ry     beta= 0.20
     Davidson diagonalization with overlap
     ethr =  8.21E-03,  avg # of iterations =  1.1

     negative rho (up, down):  6.127E-03 6.128E-03

     total cpu time spent up to now is     2766.4 secs

     total energy              =   -1895.76053809 Ry
     estimated scf accuracy    <       7.93607883 Ry

     total magnetization       =     0.00 Bohr mag/cell
     absolute magnetization    =     0.00 Bohr mag/cell

     iteration #  4     ecut=    90.00 Ry     beta= 0.20
     Davidson diagonalization with overlap
     ethr =  6.40E-03,  avg # of iterations =  1.0

     negative rho (up, down):  5.353E-03 5.354E-03

     total cpu time spent up to now is     2803.0 secs

     total energy              =   -1895.70365836 Ry
     estimated scf accuracy    <       4.88349959 Ry

     total magnetization       =     0.00 Bohr mag/cell
     absolute magnetization    =     0.00 Bohr mag/cell

     iteration #  5     ecut=    90.00 Ry     beta= 0.20
     Davidson diagonalization with overlap
     ethr =  3.94E-03,  avg # of iterations =  1.0

     negative rho (up, down):  2.348E-03 2.349E-03

     total cpu time spent up to now is     2839.7 secs

     total energy              =   -1895.35173699 Ry
     estimated scf accuracy    <       2.50104303 Ry

     total magnetization       =     0.00 Bohr mag/cell
     absolute magnetization    =     0.00 Bohr mag/cell

     iteration #  6     ecut=    90.00 Ry     beta= 0.20
     Davidson diagonalization with overlap
     ethr =  2.02E-03,  avg # of iterations =  2.2

     negative rho (up, down):  1.986E-03 1.988E-03

     total cpu time spent up to now is     2883.1 secs

     total energy              =   -1896.19340671 Ry
     estimated scf accuracy    <      13.30984492 Ry

     total magnetization       =     0.00 Bohr mag/cell
     absolute magnetization    =     0.00 Bohr mag/cell

     iteration #  7     ecut=    90.00 Ry     beta= 0.20
     Davidson diagonalization with overlap
     ethr =  2.02E-03,  avg # of iterations =  1.1

     negative rho (up, down):  1.874E-03 1.876E-03

     total cpu time spent up to now is     2920.2 secs

     total energy              =   -1895.79372903 Ry
     estimated scf accuracy    <      24.01571955 Ry

     total magnetization       =     0.00 Bohr mag/cell
     absolute magnetization    =     0.01 Bohr mag/cell

     iteration #  8     ecut=    90.00 Ry     beta= 0.20
     Davidson diagonalization with overlap
     ethr =  2.02E-03,  avg # of iterations =  1.0

     negative rho (up, down):  1.756E-03 1.757E-03

     total cpu time spent up to now is     2957.1 secs

     total energy              =   -1895.53524131 Ry
     estimated scf accuracy    <       8.36322927 Ry

     total magnetization       =     0.00 Bohr mag/cell
     absolute magnetization    =     0.00 Bohr mag/cell

     iteration #  9     ecut=    90.00 Ry     beta= 0.20
     Davidson diagonalization with overlap
     ethr =  2.02E-03,  avg # of iterations =  1.0

     negative rho (up, down):  1.752E-03 1.753E-03

     total cpu time spent up to now is     2993.9 secs

     total energy              =   -1895.69257654 Ry
     estimated scf accuracy    <       0.69165463 Ry

     total magnetization       =     0.00 Bohr mag/cell
     absolute magnetization    =     0.00 Bohr mag/cell

     iteration # 10     ecut=    90.00 Ry     beta= 0.20
     Davidson diagonalization with overlap
     ethr =  5.58E-04,  avg # of iterations =  1.1

     negative rho (up, down):  1.743E-03 1.744E-03

     total cpu time spent up to now is     3031.3 secs

     total energy              =   -1895.72834476 Ry
     estimated scf accuracy    <       0.05534707 Ry

     total magnetization       =     0.00 Bohr mag/cell
     absolute magnetization    =     0.00 Bohr mag/cell

     iteration # 11     ecut=    90.00 Ry     beta= 0.20
     Davidson diagonalization with overlap
     ethr =  4.46E-05,  avg # of iterations =  6.3

     negative rho (up, down):  1.754E-03 1.755E-03

     total cpu time spent up to now is     3089.8 secs

     total energy              =   -1895.75674888 Ry
     estimated scf accuracy    <       0.40894776 Ry

     total magnetization       =     0.00 Bohr mag/cell
     absolute magnetization    =     0.00 Bohr mag/cell

     iteration # 12     ecut=    90.00 Ry     beta= 0.20
     Davidson diagonalization with overlap
     ethr =  4.46E-05,  avg # of iterations =  1.1

     negative rho (up, down):  1.778E-03 1.779E-03

     total cpu time spent up to now is     3127.0 secs

     total energy              =   -1895.74640929 Ry
     estimated scf accuracy    <       0.37500539 Ry

     total magnetization       =     0.00 Bohr mag/cell
     absolute magnetization    =     0.00 Bohr mag/cell

     iteration # 13     ecut=    90.00 Ry     beta= 0.20
     Davidson diagonalization with overlap
     ethr =  4.46E-05,  avg # of iterations =  1.6

     negative rho (up, down):  1.779E-03 1.780E-03

     total cpu time spent up to now is     3167.0 secs

     total energy              =   -1895.75512009 Ry
     estimated scf accuracy    <       0.02038740 Ry

     total magnetization       =     0.00 Bohr mag/cell
     absolute magnetization    =     0.00 Bohr mag/cell

     iteration # 14     ecut=    90.00 Ry     beta= 0.20
     Davidson diagonalization with overlap
     ethr =  1.64E-05,  avg # of iterations =  2.2

     negative rho (up, down):  1.786E-03 1.786E-03

     total cpu time spent up to now is     3208.0 secs

     total energy              =   -1895.75823272 Ry
     estimated scf accuracy    <       0.03114392 Ry

     total magnetization       =     0.00 Bohr mag/cell
     absolute magnetization    =     0.00 Bohr mag/cell

     iteration # 15     ecut=    90.00 Ry     beta= 0.20
     Davidson diagonalization with overlap
     ethr =  1.64E-05,  avg # of iterations =  1.0

     negative rho (up, down):  1.796E-03 1.797E-03

     total cpu time spent up to now is     3245.0 secs

     total energy              =   -1895.75862086 Ry
     estimated scf accuracy    <       0.01533325 Ry

     total magnetization       =     0.00 Bohr mag/cell
     absolute magnetization    =     0.00 Bohr mag/cell

     iteration # 16     ecut=    90.00 Ry     beta= 0.20
     Davidson diagonalization with overlap
     ethr =  1.24E-05,  avg # of iterations =  1.8

     negative rho (up, down):  1.798E-03 1.799E-03

     total cpu time spent up to now is     3284.2 secs

     total energy              =   -1895.75935159 Ry
     estimated scf accuracy    <       0.00738908 Ry

     total magnetization       =     0.00 Bohr mag/cell
     absolute magnetization    =     0.00 Bohr mag/cell

     iteration # 17     ecut=    90.00 Ry     beta= 0.20
     Davidson diagonalization with overlap
     ethr =  5.96E-06,  avg # of iterations =  2.0

     negative rho (up, down):  1.800E-03 1.801E-03

     total cpu time spent up to now is     3324.2 secs

     total energy              =   -1895.75973649 Ry
     estimated scf accuracy    <       0.00133036 Ry

     total magnetization       =     0.00 Bohr mag/cell
     absolute magnetization    =     0.00 Bohr mag/cell

     iteration # 18     ecut=    90.00 Ry     beta= 0.20
     Davidson diagonalization with overlap
     ethr =  1.07E-06,  avg # of iterations =  3.1

     negative rho (up, down):  1.800E-03 1.801E-03

     total cpu time spent up to now is     3368.4 secs

     total energy              =   -1895.75977549 Ry
     estimated scf accuracy    <       0.00072012 Ry

     total magnetization       =     0.00 Bohr mag/cell
     absolute magnetization    =     0.00 Bohr mag/cell

     iteration # 19     ecut=    90.00 Ry     beta= 0.20
     Davidson diagonalization with overlap
     ethr =  5.81E-07,  avg # of iterations =  1.5

     negative rho (up, down):  1.801E-03 1.802E-03

     total cpu time spent up to now is     3407.1 secs

     total energy              =   -1895.75981776 Ry
     estimated scf accuracy    <       0.00024863 Ry

     total magnetization       =     0.00 Bohr mag/cell
     absolute magnetization    =     0.00 Bohr mag/cell

     iteration # 20     ecut=    90.00 Ry     beta= 0.20
     Davidson diagonalization with overlap
     ethr =  2.01E-07,  avg # of iterations =  1.8

     negative rho (up, down):  1.802E-03 1.802E-03

     total cpu time spent up to now is     3447.3 secs

     total energy              =   -1895.75982258 Ry
     estimated scf accuracy    <       0.00004985 Ry

     total magnetization       =     0.00 Bohr mag/cell
     absolute magnetization    =     0.00 Bohr mag/cell

     iteration # 21     ecut=    90.00 Ry     beta= 0.20
     Davidson diagonalization with overlap
     ethr =  4.02E-08,  avg # of iterations =  3.7

     negative rho (up, down):  1.802E-03 1.802E-03

     total cpu time spent up to now is     3493.5 secs

     total energy              =   -1895.75982226 Ry
     estimated scf accuracy    <       0.00009997 Ry

     total magnetization       =     0.00 Bohr mag/cell
     absolute magnetization    =     0.00 Bohr mag/cell

     iteration # 22     ecut=    90.00 Ry     beta= 0.20
     Davidson diagonalization with overlap
     ethr =  4.02E-08,  avg # of iterations =  1.5

     negative rho (up, down):  1.801E-03 1.802E-03

     total cpu time spent up to now is     3532.7 secs

     total energy              =   -1895.75982262 Ry
     estimated scf accuracy    <       0.00006663 Ry

     total magnetization       =     0.00 Bohr mag/cell
     absolute magnetization    =     0.00 Bohr mag/cell

     iteration # 23     ecut=    90.00 Ry     beta= 0.20
     Davidson diagonalization with overlap
     ethr =  4.02E-08,  avg # of iterations =  1.2

     negative rho (up, down):  1.802E-03 1.802E-03

     total cpu time spent up to now is     3570.8 secs

     total energy              =   -1895.75982142 Ry
     estimated scf accuracy    <       0.00009128 Ry

     total magnetization       =     0.00 Bohr mag/cell
     absolute magnetization    =     0.00 Bohr mag/cell

     iteration # 24     ecut=    90.00 Ry     beta= 0.20
     Davidson diagonalization with overlap
     ethr =  4.02E-08,  avg # of iterations =  1.0

     negative rho (up, down):  1.802E-03 1.802E-03

     total cpu time spent up to now is     3607.7 secs

     total energy              =   -1895.75982164 Ry
     estimated scf accuracy    <       0.00004322 Ry

     total magnetization       =     0.00 Bohr mag/cell
     absolute magnetization    =     0.00 Bohr mag/cell

     iteration # 25     ecut=    90.00 Ry     beta= 0.20
     Davidson diagonalization with overlap
     ethr =  3.49E-08,  avg # of iterations =  1.0

     negative rho (up, down):  1.802E-03 1.802E-03

     total cpu time spent up to now is     3644.6 secs

     total energy              =   -1895.75982594 Ry
     estimated scf accuracy    <       0.00000852 Ry

     total magnetization       =     0.00 Bohr mag/cell
     absolute magnetization    =     0.00 Bohr mag/cell

     iteration # 26     ecut=    90.00 Ry     beta= 0.20
     Davidson diagonalization with overlap
     ethr =  6.87E-09,  avg # of iterations =  1.0

     negative rho (up, down):  1.802E-03 1.802E-03

     total cpu time spent up to now is     3681.8 secs

     total energy              =   -1895.75982578 Ry
     estimated scf accuracy    <       0.00000307 Ry

     total magnetization       =     0.00 Bohr mag/cell
     absolute magnetization    =     0.00 Bohr mag/cell

     iteration # 27     ecut=    90.00 Ry     beta= 0.20
     Davidson diagonalization with overlap
     ethr =  2.48E-09,  avg # of iterations =  2.1

     negative rho (up, down):  1.802E-03 1.802E-03

     total cpu time spent up to now is     3725.0 secs

     total energy              =   -1895.75982595 Ry
     estimated scf accuracy    <       0.00001617 Ry

     total magnetization       =     0.00 Bohr mag/cell
     absolute magnetization    =     0.00 Bohr mag/cell

     iteration # 28     ecut=    90.00 Ry     beta= 0.20
     Davidson diagonalization with overlap
     ethr =  2.48E-09,  avg # of iterations =  1.1

     negative rho (up, down):  1.802E-03 1.802E-03

     total cpu time spent up to now is     3762.3 secs

     total energy              =   -1895.75982636 Ry
     estimated scf accuracy    <       0.00000463 Ry

     total magnetization       =     0.00 Bohr mag/cell
     absolute magnetization    =     0.00 Bohr mag/cell

     iteration # 29     ecut=    90.00 Ry     beta= 0.20
     Davidson diagonalization with overlap
     ethr =  2.48E-09,  avg # of iterations =  1.1

     negative rho (up, down):  1.802E-03 1.802E-03

     total cpu time spent up to now is     3799.6 secs

     total energy              =   -1895.75982650 Ry
     estimated scf accuracy    <       0.00000314 Ry

     total magnetization       =     0.00 Bohr mag/cell
     absolute magnetization    =     0.00 Bohr mag/cell

     iteration # 30     ecut=    90.00 Ry     beta= 0.20
     Davidson diagonalization with overlap
     ethr =  2.48E-09,  avg # of iterations =  1.0

     negative rho (up, down):  1.802E-03 1.802E-03

     total cpu time spent up to now is     3836.4 secs

     total energy              =   -1895.75982664 Ry
     estimated scf accuracy    <       0.00000011 Ry

     total magnetization       =     0.00 Bohr mag/cell
     absolute magnetization    =     0.00 Bohr mag/cell

     iteration # 31     ecut=    90.00 Ry     beta= 0.20
     Davidson diagonalization with overlap
     ethr =  8.83E-11,  avg # of iterations =  2.9

     negative rho (up, down):  1.802E-03 1.802E-03

     total cpu time spent up to now is     3881.3 secs

     total energy              =   -1895.75982664 Ry
     estimated scf accuracy    <       0.00000007 Ry

     total magnetization       =     0.00 Bohr mag/cell
     absolute magnetization    =     0.00 Bohr mag/cell

     iteration # 32     ecut=    90.00 Ry     beta= 0.20
     Davidson diagonalization with overlap
     ethr =  5.81E-11,  avg # of iterations =  3.0

     negative rho (up, down):  1.802E-03 1.802E-03

     total cpu time spent up to now is     3925.7 secs

     total energy              =   -1895.75982663 Ry
     estimated scf accuracy    <       0.00000031 Ry

     total magnetization       =     0.00 Bohr mag/cell
     absolute magnetization    =     0.00 Bohr mag/cell

     iteration # 33     ecut=    90.00 Ry     beta= 0.20
     Davidson diagonalization with overlap
     ethr =  5.81E-11,  avg # of iterations =  1.5

     negative rho (up, down):  1.802E-03 1.802E-03

     total cpu time spent up to now is     3965.2 secs

     total energy              =   -1895.75982665 Ry
     estimated scf accuracy    <       0.00000006 Ry

     total magnetization       =     0.00 Bohr mag/cell
     absolute magnetization    =     0.00 Bohr mag/cell

     iteration # 34     ecut=    90.00 Ry     beta= 0.20
     Davidson diagonalization with overlap
     ethr =  5.11E-11,  avg # of iterations =  1.0

     negative rho (up, down):  1.802E-03 1.802E-03

     total cpu time spent up to now is     4002.2 secs

     total energy              =   -1895.75982665 Ry
     estimated scf accuracy    <       0.00000006 Ry

     total magnetization       =     0.00 Bohr mag/cell
     absolute magnetization    =     0.00 Bohr mag/cell

     iteration # 35     ecut=    90.00 Ry     beta= 0.20
     Davidson diagonalization with overlap
     ethr =  5.11E-11,  avg # of iterations =  1.2

     negative rho (up, down):  1.802E-03 1.802E-03

     total cpu time spent up to now is     4039.9 secs

     total energy              =   -1895.75982665 Ry
     estimated scf accuracy    <       0.00000012 Ry

     total magnetization       =     0.00 Bohr mag/cell
     absolute magnetization    =     0.00 Bohr mag/cell

     iteration # 36     ecut=    90.00 Ry     beta= 0.20
     Davidson diagonalization with overlap
     ethr =  5.11E-11,  avg # of iterations =  1.0

     negative rho (up, down):  1.802E-03 1.802E-03

     Magnetic moment per site:
     atom:    1    charge:   11.6654    magn:   -0.0001    constr:    0.0000
     atom:    2    charge:   15.1426    magn:    0.0001    constr:    0.0000
     atom:    3    charge:   11.5817    magn:    0.0006    constr:    0.0000
     atom:    4    charge:   15.1580    magn:   -0.0004    constr:    0.0000
     atom:    5    charge:   11.5975    magn:    0.0003    constr:    0.0000
     atom:    6    charge:   15.1214    magn:   -0.0003    constr:    0.0000
     atom:    7    charge:   11.6229    magn:   -0.0003    constr:    0.0000
     atom:    8    charge:   15.1430    magn:    0.0007    constr:    0.0000

     total cpu time spent up to now is     4076.7 secs

     End of self-consistent calculation

     Number of k-points >= 100: set verbosity='high' to print the bands.

     the Fermi energy is    17.0524 ev

!    total energy              =   -1895.75982665 Ry
     estimated scf accuracy    <          2.1E-09 Ry
     smearing contrib. (-TS)   =      -0.00803877 Ry
     internal energy E=F+TS    =   -1895.75178789 Ry

     The total energy is F=E-TS. E is the sum of the following terms:
     one-electron contribution =    -941.92168642 Ry
     hartree contribution      =     538.83484105 Ry
     xc contribution           =    -219.78817846 Ry
     ewald contribution        =   -1272.87676405 Ry

     total magnetization       =     0.00 Bohr mag/cell
     absolute magnetization    =     0.00 Bohr mag/cell

     convergence has been achieved in  36 iterations

     negative rho (up, down):  1.802E-03 1.802E-03

     Forces acting on atoms (cartesian axes, Ry/au):

     atom    1 type  1   force =    -0.00058600    0.00100117    0.00069449
     atom    2 type  2   force =     0.00196989   -0.00084626   -0.00143724
     atom    3 type  1   force =    -0.00244424   -0.00210101    0.00245652
     atom    4 type  2   force =     0.00290991    0.00349996   -0.00089814
     atom    5 type  1   force =    -0.00394767   -0.00277439    0.00114429
     atom    6 type  2   force =     0.00501873   -0.00110370    0.00041436
     atom    7 type  1   force =     0.00076142    0.00009058   -0.00118353
     atom    8 type  2   force =    -0.00368205    0.00223365   -0.00119077

     Total force =     0.010934     Total SCF correction =     0.000237


     Computing stress (Cartesian axis) and pressure


     negative rho (up, down):  1.802E-03 1.802E-03
          total   stress  (Ry/bohr**3)                   (kbar)     P=     -169.21
  -0.00091755   0.00003954  -0.00000687         -134.98        5.82       -1.01
   0.00003954  -0.00133328  -0.00008692            5.82     -196.13      -12.79
  -0.00000687  -0.00008692  -0.00119988           -1.01      -12.79     -176.51

     Energy error            =      4.5E-03
     Gradient error          =      5.0E-03

     number of scf cycles    =   7
     number of bfgs steps    =   3

     energy   old            =   -1895.7553617506 Ry
     energy   new            =   -1895.7598266521 Ry

     CASE: energy  _new < energy  _old

     new trust radius        =       0.0095174337 bohr
     new conv_thr            =       0.0000000050 Ry


ATOMIC_POSITIONS (angstrom)
Cr            0.6192358707        2.0168162858       -1.1943912510
Co            2.7283333554        0.3845504915        2.3303463786
Cr            0.4238254928       -0.4440387121        2.2292969829
Co            1.8984664212        2.7209780075        1.0557628803
Cr            1.6960641496        0.4352048321        0.0092336154
Co           -0.4138435794        1.8750363467        1.0801364225
Cr            2.7789653085        2.6362950049        3.3320816693
Co           -0.6277789364       -0.4198969111        0.0338137539



     Writing output data file ./pwscf.save/
     NEW-OLD atomic charge density approx. for the potential

     Check: negative core charge=   -0.000010

     negative rho (up, down):  1.811E-03 1.812E-03
     Generating pointlists ...

     total cpu time spent up to now is     4101.3 secs

     Self-consistent Calculation

     iteration #  1     ecut=    90.00 Ry     beta= 0.20
     Davidson diagonalization with overlap
     ethr =  1.00E-06,  avg # of iterations =  5.1

     negative rho (up, down):  1.811E-03 1.811E-03

     total cpu time spent up to now is     4192.1 secs

     total energy              =   -1895.75995076 Ry
     estimated scf accuracy    <       0.00023231 Ry

     total magnetization       =     0.00 Bohr mag/cell
     absolute magnetization    =     0.00 Bohr mag/cell

     iteration #  2     ecut=    90.00 Ry     beta= 0.20
     Davidson diagonalization with overlap
     ethr =  1.87E-07,  avg # of iterations =  4.5

     negative rho (up, down):  1.811E-03 1.812E-03

     total cpu time spent up to now is     4246.5 secs

     total energy              =   -1895.75987780 Ry
     estimated scf accuracy    <       0.00428065 Ry

     total magnetization       =     0.00 Bohr mag/cell
     absolute magnetization    =     0.00 Bohr mag/cell

     iteration #  3     ecut=    90.00 Ry     beta= 0.20
     Davidson diagonalization with overlap
     ethr =  1.87E-07,  avg # of iterations =  3.0

     negative rho (up, down):  1.811E-03 1.811E-03

     total cpu time spent up to now is     4291.3 secs

     total energy              =   -1895.76000512 Ry
     estimated scf accuracy    <       0.00011002 Ry

     total magnetization       =     0.00 Bohr mag/cell
     absolute magnetization    =     0.00 Bohr mag/cell

     iteration #  4     ecut=    90.00 Ry     beta= 0.20
     Davidson diagonalization with overlap
     ethr =  8.87E-08,  avg # of iterations =  2.3

     negative rho (up, down):  1.811E-03 1.811E-03

     total cpu time spent up to now is     4333.0 secs

     total energy              =   -1895.76000890 Ry
     estimated scf accuracy    <       0.00006910 Ry

     total magnetization       =     0.00 Bohr mag/cell
     absolute magnetization    =     0.00 Bohr mag/cell

     iteration #  5     ecut=    90.00 Ry     beta= 0.20
     Davidson diagonalization with overlap
     ethr =  5.57E-08,  avg # of iterations =  2.0

     negative rho (up, down):  1.811E-03 1.811E-03

     total cpu time spent up to now is     4374.7 secs

     total energy              =   -1895.76001045 Ry
     estimated scf accuracy    <       0.00008735 Ry

     total magnetization       =     0.00 Bohr mag/cell
     absolute magnetization    =     0.00 Bohr mag/cell

     iteration #  6     ecut=    90.00 Ry     beta= 0.20
     Davidson diagonalization with overlap
     ethr =  5.57E-08,  avg # of iterations =  1.0

     negative rho (up, down):  1.811E-03 1.811E-03

     total cpu time spent up to now is     4411.3 secs

     total energy              =   -1895.76001307 Ry
     estimated scf accuracy    <       0.00001225 Ry

     total magnetization       =     0.00 Bohr mag/cell
     absolute magnetization    =     0.00 Bohr mag/cell

     iteration #  7     ecut=    90.00 Ry     beta= 0.20
     Davidson diagonalization with overlap
     ethr =  9.88E-09,  avg # of iterations =  2.2

     negative rho (up, down):  1.811E-03 1.811E-03

     total cpu time spent up to now is     4454.2 secs

     total energy              =   -1895.76001293 Ry
     estimated scf accuracy    <       0.00000800 Ry

     total magnetization       =     0.00 Bohr mag/cell
     absolute magnetization    =     0.00 Bohr mag/cell

     iteration #  8     ecut=    90.00 Ry     beta= 0.20
     Davidson diagonalization with overlap
     ethr =  6.45E-09,  avg # of iterations =  1.1

     negative rho (up, down):  1.811E-03 1.811E-03

     total cpu time spent up to now is     4491.3 secs

     total energy              =   -1895.76001333 Ry
     estimated scf accuracy    <       0.00000534 Ry

     total magnetization       =     0.00 Bohr mag/cell
     absolute magnetization    =     0.00 Bohr mag/cell

     iteration #  9     ecut=    90.00 Ry     beta= 0.20
     Davidson diagonalization with overlap
     ethr =  4.30E-09,  avg # of iterations =  1.0

     negative rho (up, down):  1.811E-03 1.811E-03

     total cpu time spent up to now is     4528.2 secs

     total energy              =   -1895.76001337 Ry
     estimated scf accuracy    <       0.00000406 Ry

     total magnetization       =     0.00 Bohr mag/cell
     absolute magnetization    =     0.00 Bohr mag/cell

     iteration # 10     ecut=    90.00 Ry     beta= 0.20
     Davidson diagonalization with overlap
     ethr =  3.28E-09,  avg # of iterations =  1.0

     negative rho (up, down):  1.810E-03 1.811E-03

     total cpu time spent up to now is     4565.0 secs

     total energy              =   -1895.76001343 Ry
     estimated scf accuracy    <       0.00000168 Ry

     total magnetization       =     0.00 Bohr mag/cell
     absolute magnetization    =     0.00 Bohr mag/cell

     iteration # 11     ecut=    90.00 Ry     beta= 0.20
     Davidson diagonalization with overlap
     ethr =  1.35E-09,  avg # of iterations =  1.2

     negative rho (up, down):  1.810E-03 1.811E-03

     total cpu time spent up to now is     4602.6 secs

     total energy              =   -1895.76001350 Ry
     estimated scf accuracy    <       0.00000008 Ry

     total magnetization       =     0.00 Bohr mag/cell
     absolute magnetization    =     0.00 Bohr mag/cell

     iteration # 12     ecut=    90.00 Ry     beta= 0.20
     Davidson diagonalization with overlap
     ethr =  6.22E-11,  avg # of iterations =  5.3

     negative rho (up, down):  1.810E-03 1.811E-03

     total cpu time spent up to now is     4655.3 secs

     total energy              =   -1895.76001351 Ry
     estimated scf accuracy    <       0.00000016 Ry

     total magnetization       =     0.00 Bohr mag/cell
     absolute magnetization    =     0.00 Bohr mag/cell

     iteration # 13     ecut=    90.00 Ry     beta= 0.20
     Davidson diagonalization with overlap
     ethr =  6.22E-11,  avg # of iterations =  1.0

     negative rho (up, down):  1.810E-03 1.811E-03

     total cpu time spent up to now is     4692.3 secs

     total energy              =   -1895.76001351 Ry
     estimated scf accuracy    <       0.00000002 Ry

     total magnetization       =     0.00 Bohr mag/cell
     absolute magnetization    =     0.00 Bohr mag/cell

     iteration # 14     ecut=    90.00 Ry     beta= 0.20
     Davidson diagonalization with overlap
     ethr =  1.90E-11,  avg # of iterations =  2.0

     negative rho (up, down):  1.810E-03 1.811E-03

     total cpu time spent up to now is     4738.9 secs

     total energy              =   -1895.76001351 Ry
     estimated scf accuracy    <       0.00000009 Ry

     total magnetization       =     0.00 Bohr mag/cell
     absolute magnetization    =     0.00 Bohr mag/cell

     iteration # 15     ecut=    90.00 Ry     beta= 0.20
     Davidson diagonalization with overlap
     ethr =  1.90E-11,  avg # of iterations =  1.4

     negative rho (up, down):  1.810E-03 1.811E-03

     total cpu time spent up to now is     4777.7 secs

     total energy              =   -1895.76001352 Ry
     estimated scf accuracy    <       0.00000008 Ry

     total magnetization       =     0.00 Bohr mag/cell
     absolute magnetization    =     0.00 Bohr mag/cell

     iteration # 16     ecut=    90.00 Ry     beta= 0.20
     Davidson diagonalization with overlap
     ethr =  1.90E-11,  avg # of iterations =  1.0

     negative rho (up, down):  1.810E-03 1.811E-03

     total cpu time spent up to now is     4814.5 secs

     total energy              =   -1895.76001352 Ry
     estimated scf accuracy    <       0.00000003 Ry

     total magnetization       =     0.00 Bohr mag/cell
     absolute magnetization    =     0.00 Bohr mag/cell

     iteration # 17     ecut=    90.00 Ry     beta= 0.20
     Davidson diagonalization with overlap
     ethr =  1.90E-11,  avg # of iterations =  1.0

     negative rho (up, down):  1.810E-03 1.811E-03

     Magnetic moment per site:
     atom:    1    charge:   11.6661    magn:   -0.0001    constr:    0.0000
     atom:    2    charge:   15.1422    magn:    0.0000    constr:    0.0000
     atom:    3    charge:   11.5819    magn:    0.0007    constr:    0.0000
     atom:    4    charge:   15.1580    magn:   -0.0006    constr:    0.0000
     atom:    5    charge:   11.5975    magn:    0.0003    constr:    0.0000
     atom:    6    charge:   15.1213    magn:   -0.0005    constr:    0.0000
     atom:    7    charge:   11.6232    magn:   -0.0002    constr:    0.0000
     atom:    8    charge:   15.1430    magn:    0.0006    constr:    0.0000

     total cpu time spent up to now is     4851.2 secs

     End of self-consistent calculation

     Number of k-points >= 100: set verbosity='high' to print the bands.

     the Fermi energy is    17.0521 ev

!    total energy              =   -1895.76001352 Ry
     estimated scf accuracy    <          2.6E-09 Ry
     smearing contrib. (-TS)   =      -0.00802743 Ry
     internal energy E=F+TS    =   -1895.75198609 Ry

     The total energy is F=E-TS. E is the sum of the following terms:
     one-electron contribution =    -941.96943480 Ry
     hartree contribution      =     538.85816559 Ry
     xc contribution           =    -219.78865936 Ry
     ewald contribution        =   -1272.85205752 Ry

     total magnetization       =     0.00 Bohr mag/cell
     absolute magnetization    =     0.00 Bohr mag/cell

     convergence has been achieved in  17 iterations

     negative rho (up, down):  1.810E-03 1.811E-03

     Forces acting on atoms (cartesian axes, Ry/au):

     atom    1 type  1   force =    -0.00081233    0.00105807    0.00068884
     atom    2 type  2   force =     0.00144161   -0.00054092   -0.00127755
     atom    3 type  1   force =    -0.00217353   -0.00145776    0.00219102
     atom    4 type  2   force =     0.00313203    0.00262196   -0.00115252
     atom    5 type  1   force =    -0.00364621   -0.00263231    0.00090954
     atom    6 type  2   force =     0.00438134   -0.00047319    0.00053873
     atom    7 type  1   force =     0.00072837   -0.00022624   -0.00085713
     atom    8 type  2   force =    -0.00305128    0.00165038   -0.00104093

     Total force =     0.009545     Total SCF correction =     0.000291


     Computing stress (Cartesian axis) and pressure


     negative rho (up, down):  1.810E-03 1.811E-03
          total   stress  (Ry/bohr**3)                   (kbar)     P=     -169.21
  -0.00091733   0.00003826  -0.00000399         -134.94        5.63       -0.59
   0.00003826  -0.00133184  -0.00008811            5.63     -195.92      -12.96
  -0.00000399  -0.00008811  -0.00120156           -0.59      -12.96     -176.76

     Energy error            =      1.9E-04
     Gradient error          =      4.4E-03

     number of scf cycles    =  10
     number of bfgs steps    =   4

     energy   old            =   -1895.7598266521 Ry
     energy   new            =   -1895.7600135191 Ry

     CASE: energy  _new < energy  _old


     WARNING: bfgs curvature condition failed, Theta= 0.871
     new trust radius        =       0.0104691771 bohr
     new conv_thr            =       0.0000000019 Ry


ATOMIC_POSITIONS (angstrom)
Cr            0.6205707900        2.0173000541       -1.1943194474
Co            2.7298073970        0.3835464663        2.3289638391
Cr            0.4219365154       -0.4467251270        2.2312846908
Co            1.9014913765        2.7250144067        1.0550154718
Cr            1.6915881382        0.4339587039        0.0106193079
Co           -0.4084696271        1.8737312949        1.0804675265
Cr            2.7789716742        2.6367478706        3.3302019626
Co           -0.6326459202       -0.4186197048        0.0339842859



     Writing output data file ./pwscf.save/
     NEW-OLD atomic charge density approx. for the potential

     Check: negative core charge=   -0.000010

     negative rho (up, down):  1.830E-03 1.831E-03
     Generating pointlists ...

     total cpu time spent up to now is     4875.8 secs

     Self-consistent Calculation

     iteration #  1     ecut=    90.00 Ry     beta= 0.20
     Davidson diagonalization with overlap
     ethr =  1.00E-06,  avg # of iterations =  5.4

     negative rho (up, down):  1.830E-03 1.831E-03

     total cpu time spent up to now is     4969.8 secs

     total energy              =   -1895.76011753 Ry
     estimated scf accuracy    <       0.00027550 Ry

     total magnetization       =     0.00 Bohr mag/cell
     absolute magnetization    =     0.00 Bohr mag/cell

     iteration #  2     ecut=    90.00 Ry     beta= 0.20
     Davidson diagonalization with overlap
     ethr =  2.22E-07,  avg # of iterations =  4.4

     negative rho (up, down):  1.830E-03 1.831E-03

     total cpu time spent up to now is     5023.8 secs

     total energy              =   -1895.76003104 Ry
     estimated scf accuracy    <       0.00499413 Ry

     total magnetization       =     0.00 Bohr mag/cell
     absolute magnetization    =     0.00 Bohr mag/cell

     iteration #  3     ecut=    90.00 Ry     beta= 0.20
     Davidson diagonalization with overlap
     ethr =  2.22E-07,  avg # of iterations =  2.9

     negative rho (up, down):  1.830E-03 1.830E-03

     total cpu time spent up to now is     5068.6 secs

     total energy              =   -1895.76018089 Ry
     estimated scf accuracy    <       0.00011835 Ry

     total magnetization       =     0.00 Bohr mag/cell
     absolute magnetization    =     0.00 Bohr mag/cell

     iteration #  4     ecut=    90.00 Ry     beta= 0.20
     Davidson diagonalization with overlap
     ethr =  9.54E-08,  avg # of iterations =  2.5

     negative rho (up, down):  1.830E-03 1.830E-03

     total cpu time spent up to now is     5111.0 secs

     total energy              =   -1895.76018512 Ry
     estimated scf accuracy    <       0.00008659 Ry

     total magnetization       =     0.00 Bohr mag/cell
     absolute magnetization    =     0.00 Bohr mag/cell

     iteration #  5     ecut=    90.00 Ry     beta= 0.20
     Davidson diagonalization with overlap
     ethr =  6.98E-08,  avg # of iterations =  1.6

     negative rho (up, down):  1.830E-03 1.830E-03

     total cpu time spent up to now is     5151.0 secs

     total energy              =   -1895.76018687 Ry
     estimated scf accuracy    <       0.00010116 Ry

     total magnetization       =     0.00 Bohr mag/cell
     absolute magnetization    =     0.00 Bohr mag/cell

     iteration #  6     ecut=    90.00 Ry     beta= 0.20
     Davidson diagonalization with overlap
     ethr =  6.98E-08,  avg # of iterations =  1.0

     negative rho (up, down):  1.830E-03 1.830E-03

     total cpu time spent up to now is     5187.5 secs

     total energy              =   -1895.76018990 Ry
     estimated scf accuracy    <       0.00001400 Ry

     total magnetization       =     0.00 Bohr mag/cell
     absolute magnetization    =     0.00 Bohr mag/cell

     iteration #  7     ecut=    90.00 Ry     beta= 0.20
     Davidson diagonalization with overlap
     ethr =  1.13E-08,  avg # of iterations =  2.1

     negative rho (up, down):  1.830E-03 1.830E-03

     total cpu time spent up to now is     5229.3 secs

     total energy              =   -1895.76018969 Ry
     estimated scf accuracy    <       0.00000936 Ry

     total magnetization       =     0.00 Bohr mag/cell
     absolute magnetization    =     0.00 Bohr mag/cell

     iteration #  8     ecut=    90.00 Ry     beta= 0.20
     Davidson diagonalization with overlap
     ethr =  7.55E-09,  avg # of iterations =  1.1

     negative rho (up, down):  1.830E-03 1.830E-03

     total cpu time spent up to now is     5266.4 secs

     total energy              =   -1895.76019024 Ry
     estimated scf accuracy    <       0.00000815 Ry

     total magnetization       =    -0.00 Bohr mag/cell
     absolute magnetization    =     0.00 Bohr mag/cell

     iteration #  9     ecut=    90.00 Ry     beta= 0.20
     Davidson diagonalization with overlap
     ethr =  6.57E-09,  avg # of iterations =  1.0

     negative rho (up, down):  1.830E-03 1.830E-03

     total cpu time spent up to now is     5303.1 secs

     total energy              =   -1895.76019023 Ry
     estimated scf accuracy    <       0.00000619 Ry

     total magnetization       =    -0.00 Bohr mag/cell
     absolute magnetization    =     0.00 Bohr mag/cell

     iteration # 10     ecut=    90.00 Ry     beta= 0.20
     Davidson diagonalization with overlap
     ethr =  4.99E-09,  avg # of iterations =  1.0

     negative rho (up, down):  1.830E-03 1.830E-03

     total cpu time spent up to now is     5339.9 secs

     total energy              =   -1895.76019033 Ry
     estimated scf accuracy    <       0.00000204 Ry

     total magnetization       =    -0.00 Bohr mag/cell
     absolute magnetization    =     0.00 Bohr mag/cell

     iteration # 11     ecut=    90.00 Ry     beta= 0.20
     Davidson diagonalization with overlap
     ethr =  1.65E-09,  avg # of iterations =  1.2

     negative rho (up, down):  1.830E-03 1.830E-03

     total cpu time spent up to now is     5377.5 secs

     total energy              =   -1895.76019042 Ry
     estimated scf accuracy    <       0.00000008 Ry

     total magnetization       =    -0.00 Bohr mag/cell
     absolute magnetization    =     0.00 Bohr mag/cell

     iteration # 12     ecut=    90.00 Ry     beta= 0.20
     Davidson diagonalization with overlap
     ethr =  6.75E-11,  avg # of iterations =  5.6

     negative rho (up, down):  1.830E-03 1.830E-03

     total cpu time spent up to now is     5432.2 secs

     total energy              =   -1895.76019042 Ry
     estimated scf accuracy    <       0.00000020 Ry

     total magnetization       =    -0.00 Bohr mag/cell
     absolute magnetization    =     0.00 Bohr mag/cell

     iteration # 13     ecut=    90.00 Ry     beta= 0.20
     Davidson diagonalization with overlap
     ethr =  6.75E-11,  avg # of iterations =  1.0

     negative rho (up, down):  1.829E-03 1.830E-03

     total cpu time spent up to now is     5469.1 secs

     total energy              =   -1895.76019043 Ry
     estimated scf accuracy    <       0.00000003 Ry

     total magnetization       =    -0.00 Bohr mag/cell
     absolute magnetization    =     0.00 Bohr mag/cell

     iteration # 14     ecut=    90.00 Ry     beta= 0.20
     Davidson diagonalization with overlap
     ethr =  2.31E-11,  avg # of iterations =  2.0

     negative rho (up, down):  1.829E-03 1.830E-03

     total cpu time spent up to now is     5515.4 secs

     total energy              =   -1895.76019043 Ry
     estimated scf accuracy    <       0.00000006 Ry

     total magnetization       =    -0.00 Bohr mag/cell
     absolute magnetization    =     0.00 Bohr mag/cell

     iteration # 15     ecut=    90.00 Ry     beta= 0.20
     Davidson diagonalization with overlap
     ethr =  2.31E-11,  avg # of iterations =  1.1

     negative rho (up, down):  1.829E-03 1.830E-03

     total cpu time spent up to now is     5552.7 secs

     total energy              =   -1895.76019044 Ry
     estimated scf accuracy    <       0.00000011 Ry

     total magnetization       =    -0.00 Bohr mag/cell
     absolute magnetization    =     0.00 Bohr mag/cell

     iteration # 16     ecut=    90.00 Ry     beta= 0.20
     Davidson diagonalization with overlap
     ethr =  2.31E-11,  avg # of iterations =  1.0

     negative rho (up, down):  1.829E-03 1.830E-03

     total cpu time spent up to now is     5589.5 secs

     total energy              =   -1895.76019044 Ry
     estimated scf accuracy    <       0.00000003 Ry

     total magnetization       =    -0.00 Bohr mag/cell
     absolute magnetization    =     0.00 Bohr mag/cell

     iteration # 17     ecut=    90.00 Ry     beta= 0.20
     Davidson diagonalization with overlap
     ethr =  2.31E-11,  avg # of iterations =  1.0

     negative rho (up, down):  1.829E-03 1.830E-03

     total cpu time spent up to now is     5626.2 secs

     total energy              =   -1895.76019044 Ry
     estimated scf accuracy    <          3.7E-09 Ry

     total magnetization       =    -0.00 Bohr mag/cell
     absolute magnetization    =     0.00 Bohr mag/cell

     iteration # 18     ecut=    90.00 Ry     beta= 0.20
     Davidson diagonalization with overlap
     ethr =  3.02E-12,  avg # of iterations =  1.4

     negative rho (up, down):  1.829E-03 1.830E-03

     total cpu time spent up to now is     5665.0 secs

     total energy              =   -1895.76019044 Ry
     estimated scf accuracy    <          5.7E-09 Ry

     total magnetization       =    -0.00 Bohr mag/cell
     absolute magnetization    =     0.00 Bohr mag/cell

     iteration # 19     ecut=    90.00 Ry     beta= 0.20
     Davidson diagonalization with overlap
     ethr =  3.02E-12,  avg # of iterations =  1.1

     negative rho (up, down):  1.829E-03 1.830E-03

     total cpu time spent up to now is     5702.1 secs

     total energy              =   -1895.76019044 Ry
     estimated scf accuracy    <          5.7E-09 Ry

     total magnetization       =    -0.00 Bohr mag/cell
     absolute magnetization    =     0.00 Bohr mag/cell

     iteration # 20     ecut=    90.00 Ry     beta= 0.20
     Davidson diagonalization with overlap
     ethr =  3.02E-12,  avg # of iterations =  1.0

     negative rho (up, down):  1.829E-03 1.830E-03

     total cpu time spent up to now is     5738.8 secs

     total energy              =   -1895.76019044 Ry
     estimated scf accuracy    <          2.4E-09 Ry

     total magnetization       =    -0.00 Bohr mag/cell
     absolute magnetization    =     0.00 Bohr mag/cell

     iteration # 21     ecut=    90.00 Ry     beta= 0.20
     Davidson diagonalization with overlap
     ethr =  1.97E-12,  avg # of iterations =  1.0

     negative rho (up, down):  1.829E-03 1.830E-03

     total cpu time spent up to now is     5775.6 secs

     total energy              =   -1895.76019044 Ry
     estimated scf accuracy    <          4.1E-09 Ry

     total magnetization       =    -0.00 Bohr mag/cell
     absolute magnetization    =     0.00 Bohr mag/cell

     iteration # 22     ecut=    90.00 Ry     beta= 0.20
     Davidson diagonalization with overlap
     ethr =  1.97E-12,  avg # of iterations =  1.0

     negative rho (up, down):  1.829E-03 1.830E-03

     total cpu time spent up to now is     5812.3 secs

     total energy              =   -1895.76019044 Ry
     estimated scf accuracy    <          2.3E-09 Ry

     total magnetization       =    -0.00 Bohr mag/cell
     absolute magnetization    =     0.00 Bohr mag/cell

     iteration # 23     ecut=    90.00 Ry     beta= 0.20
     Davidson diagonalization with overlap
     ethr =  1.89E-12,  avg # of iterations =  1.0

     negative rho (up, down):  1.829E-03 1.830E-03

     total cpu time spent up to now is     5849.0 secs

     total energy              =   -1895.76019044 Ry
     estimated scf accuracy    <          2.0E-09 Ry

     total magnetization       =    -0.00 Bohr mag/cell
     absolute magnetization    =     0.00 Bohr mag/cell

     iteration # 24     ecut=    90.00 Ry     beta= 0.20
     Davidson diagonalization with overlap
     ethr =  1.63E-12,  avg # of iterations =  1.0

     negative rho (up, down):  1.829E-03 1.830E-03

     total cpu time spent up to now is     5885.8 secs

     total energy              =   -1895.76019044 Ry
     estimated scf accuracy    <          2.3E-09 Ry

     total magnetization       =    -0.00 Bohr mag/cell
     absolute magnetization    =     0.00 Bohr mag/cell

     iteration # 25     ecut=    90.00 Ry     beta= 0.20
     Davidson diagonalization with overlap
     ethr =  1.63E-12,  avg # of iterations =  1.0

     negative rho (up, down):  1.829E-03 1.830E-03

     total cpu time spent up to now is     5922.5 secs

     total energy              =   -1895.76019044 Ry
     estimated scf accuracy    <          2.2E-09 Ry

     total magnetization       =    -0.00 Bohr mag/cell
     absolute magnetization    =     0.00 Bohr mag/cell

     iteration # 26     ecut=    90.00 Ry     beta= 0.20
     Davidson diagonalization with overlap
     ethr =  1.63E-12,  avg # of iterations =  1.0

     negative rho (up, down):  1.829E-03 1.830E-03

     total cpu time spent up to now is     5959.2 secs

     total energy              =   -1895.76019044 Ry
     estimated scf accuracy    <          2.2E-09 Ry

     total magnetization       =    -0.00 Bohr mag/cell
     absolute magnetization    =     0.00 Bohr mag/cell

     iteration # 27     ecut=    90.00 Ry     beta= 0.20
     Davidson diagonalization with overlap
     ethr =  1.63E-12,  avg # of iterations =  1.0

     negative rho (up, down):  1.829E-03 1.830E-03

     total cpu time spent up to now is     5995.9 secs

     total energy              =   -1895.76019044 Ry
[...]

     total cpu time spent up to now is    11476.6 secs

     total energy              =   -1895.76086620 Ry
     estimated scf accuracy    <       0.00050380 Ry

     total magnetization       =     0.00 Bohr mag/cell
     absolute magnetization    =     0.00 Bohr mag/cell

     iteration #  2     ecut=    90.00 Ry     beta= 0.20
     Davidson diagonalization with overlap
     ethr =  4.06E-07,  avg # of iterations =  4.3

     negative rho (up, down):  1.899E-03 1.899E-03

     total cpu time spent up to now is    11530.4 secs

     total energy              =   -1895.76061276 Ry
     estimated scf accuracy    <       0.01453931 Ry

     total magnetization       =     0.00 Bohr mag/cell
     absolute magnetization    =     0.00 Bohr mag/cell

     iteration #  3     ecut=    90.00 Ry     beta= 0.20
     Davidson diagonalization with overlap
     ethr =  4.06E-07,  avg # of iterations =  3.0

     negative rho (up, down):  1.899E-03 1.899E-03

     total cpu time spent up to now is    11576.6 secs

     total energy              =   -1895.76099645 Ry
     estimated scf accuracy    <       0.00013516 Ry

     total magnetization       =     0.00 Bohr mag/cell
     absolute magnetization    =     0.00 Bohr mag/cell

     iteration #  4     ecut=    90.00 Ry     beta= 0.20
     Davidson diagonalization with overlap
     ethr =  1.09E-07,  avg # of iterations =  3.4

     negative rho (up, down):  1.899E-03 1.899E-03

     total cpu time spent up to now is    11622.3 secs

     total energy              =   -1895.76100228 Ry
     estimated scf accuracy    <       0.00008211 Ry

     total magnetization       =     0.00 Bohr mag/cell
     absolute magnetization    =     0.00 Bohr mag/cell

     iteration #  5     ecut=    90.00 Ry     beta= 0.20
     Davidson diagonalization with overlap
     ethr =  6.62E-08,  avg # of iterations =  2.0

     negative rho (up, down):  1.899E-03 1.899E-03

     total cpu time spent up to now is    11664.1 secs

     total energy              =   -1895.76100447 Ry
     estimated scf accuracy    <       0.00011244 Ry

     total magnetization       =     0.00 Bohr mag/cell
     absolute magnetization    =     0.00 Bohr mag/cell

     iteration #  6     ecut=    90.00 Ry     beta= 0.20
     Davidson diagonalization with overlap
     ethr =  6.62E-08,  avg # of iterations =  1.0

     negative rho (up, down):  1.899E-03 1.899E-03

     total cpu time spent up to now is    11700.6 secs

     total energy              =   -1895.76100757 Ry
     estimated scf accuracy    <       0.00001979 Ry

     total magnetization       =     0.00 Bohr mag/cell
     absolute magnetization    =     0.00 Bohr mag/cell

     iteration #  7     ecut=    90.00 Ry     beta= 0.20
     Davidson diagonalization with overlap
     ethr =  1.60E-08,  avg # of iterations =  1.8

     negative rho (up, down):  1.899E-03 1.899E-03

     total cpu time spent up to now is    11741.0 secs

     total energy              =   -1895.76100741 Ry
     estimated scf accuracy    <       0.00001524 Ry

     total magnetization       =     0.00 Bohr mag/cell
     absolute magnetization    =     0.00 Bohr mag/cell

     iteration #  8     ecut=    90.00 Ry     beta= 0.20
     Davidson diagonalization with overlap
     ethr =  1.23E-08,  avg # of iterations =  1.1

     negative rho (up, down):  1.899E-03 1.899E-03

     total cpu time spent up to now is    11777.9 secs

     total energy              =   -1895.76100832 Ry
     estimated scf accuracy    <       0.00001010 Ry

     total magnetization       =     0.00 Bohr mag/cell
     absolute magnetization    =     0.00 Bohr mag/cell

     iteration #  9     ecut=    90.00 Ry     beta= 0.20
     Davidson diagonalization with overlap
     ethr =  8.15E-09,  avg # of iterations =  1.0

     negative rho (up, down):  1.899E-03 1.899E-03

     total cpu time spent up to now is    11814.6 secs

     total energy              =   -1895.76100817 Ry
     estimated scf accuracy    <       0.00000995 Ry

     total magnetization       =     0.00 Bohr mag/cell
     absolute magnetization    =     0.00 Bohr mag/cell

     iteration # 10     ecut=    90.00 Ry     beta= 0.20
     Davidson diagonalization with overlap
     ethr =  8.02E-09,  avg # of iterations =  1.0

     negative rho (up, down):  1.899E-03 1.899E-03

     total cpu time spent up to now is    11851.3 secs

     total energy              =   -1895.76100845 Ry
     estimated scf accuracy    <       0.00000092 Ry

     total magnetization       =     0.00 Bohr mag/cell
     absolute magnetization    =     0.00 Bohr mag/cell

     iteration # 11     ecut=    90.00 Ry     beta= 0.20
     Davidson diagonalization with overlap
     ethr =  7.46E-10,  avg # of iterations =  2.0

     negative rho (up, down):  1.899E-03 1.899E-03

     total cpu time spent up to now is    11892.4 secs

     total energy              =   -1895.76100850 Ry
     estimated scf accuracy    <       0.00000029 Ry

     total magnetization       =     0.00 Bohr mag/cell
     absolute magnetization    =     0.00 Bohr mag/cell

     iteration # 12     ecut=    90.00 Ry     beta= 0.20
     Davidson diagonalization with overlap
     ethr =  2.30E-10,  avg # of iterations =  2.3

     negative rho (up, down):  1.899E-03 1.899E-03

     total cpu time spent up to now is    11934.3 secs

     total energy              =   -1895.76100851 Ry
     estimated scf accuracy    <       0.00000014 Ry

     total magnetization       =     0.00 Bohr mag/cell
     absolute magnetization    =     0.00 Bohr mag/cell

     iteration # 13     ecut=    90.00 Ry     beta= 0.20
     Davidson diagonalization with overlap
     ethr =  1.11E-10,  avg # of iterations =  2.4

     negative rho (up, down):  1.899E-03 1.899E-03

     total cpu time spent up to now is    11976.2 secs

     total energy              =   -1895.76100852 Ry
     estimated scf accuracy    <       0.00000010 Ry

     total magnetization       =     0.00 Bohr mag/cell
     absolute magnetization    =     0.00 Bohr mag/cell

     iteration # 14     ecut=    90.00 Ry     beta= 0.20
     Davidson diagonalization with overlap
     ethr =  7.89E-11,  avg # of iterations =  1.4

     negative rho (up, down):  1.899E-03 1.899E-03

     total cpu time spent up to now is    12015.0 secs

     total energy              =   -1895.76100852 Ry
     estimated scf accuracy    <       0.00000018 Ry

     total magnetization       =     0.00 Bohr mag/cell
     absolute magnetization    =     0.00 Bohr mag/cell

     iteration # 15     ecut=    90.00 Ry     beta= 0.20
     Davidson diagonalization with overlap
     ethr =  7.89E-11,  avg # of iterations =  1.1

     negative rho (up, down):  1.899E-03 1.899E-03

     total cpu time spent up to now is    12052.5 secs

     total energy              =   -1895.76100853 Ry
     estimated scf accuracy    <       0.00000008 Ry

     total magnetization       =     0.00 Bohr mag/cell
     absolute magnetization    =     0.00 Bohr mag/cell

     iteration # 16     ecut=    90.00 Ry     beta= 0.20
     Davidson diagonalization with overlap
     ethr =  6.32E-11,  avg # of iterations =  1.1

     negative rho (up, down):  1.899E-03 1.899E-03

     total cpu time spent up to now is    12089.7 secs

     total energy              =   -1895.76100853 Ry
     estimated scf accuracy    <       0.00000002 Ry

     total magnetization       =     0.00 Bohr mag/cell
     absolute magnetization    =     0.00 Bohr mag/cell

     iteration # 17     ecut=    90.00 Ry     beta= 0.20
     Davidson diagonalization with overlap
     ethr =  1.52E-11,  avg # of iterations =  1.6

     negative rho (up, down):  1.899E-03 1.899E-03

     total cpu time spent up to now is    12129.4 secs

     total energy              =   -1895.76100853 Ry
     estimated scf accuracy    <          3.6E-09 Ry

     total magnetization       =     0.00 Bohr mag/cell
     absolute magnetization    =     0.00 Bohr mag/cell

     iteration # 18     ecut=    90.00 Ry     beta= 0.20
     Davidson diagonalization with overlap
     ethr =  2.89E-12,  avg # of iterations =  3.4

     negative rho (up, down):  1.899E-03 1.899E-03

     total cpu time spent up to now is    12174.1 secs

     total energy              =   -1895.76100853 Ry
     estimated scf accuracy    <          4.7E-09 Ry

     total magnetization       =     0.00 Bohr mag/cell
     absolute magnetization    =     0.00 Bohr mag/cell

     iteration # 19     ecut=    90.00 Ry     beta= 0.20
     Davidson diagonalization with overlap
     ethr =  2.89E-12,  avg # of iterations =  2.0

     negative rho (up, down):  1.899E-03 1.899E-03

     total cpu time spent up to now is    12216.3 secs

     total energy              =   -1895.76100853 Ry
     estimated scf accuracy    <       0.00000002 Ry

     total magnetization       =     0.00 Bohr mag/cell
     absolute magnetization    =     0.00 Bohr mag/cell

     iteration # 20     ecut=    90.00 Ry     beta= 0.20
     Davidson diagonalization with overlap
     ethr =  2.89E-12,  avg # of iterations =  1.2

     negative rho (up, down):  1.899E-03 1.899E-03

     total cpu time spent up to now is    12253.8 secs

     total energy              =   -1895.76100853 Ry
     estimated scf accuracy    <          6.7E-09 Ry

     total magnetization       =     0.00 Bohr mag/cell
     absolute magnetization    =     0.00 Bohr mag/cell

     iteration # 21     ecut=    90.00 Ry     beta= 0.20
     Davidson diagonalization with overlap
     ethr =  2.89E-12,  avg # of iterations =  1.1

     negative rho (up, down):  1.899E-03 1.899E-03

     total cpu time spent up to now is    12291.1 secs

     total energy              =   -1895.76100854 Ry
     estimated scf accuracy    <       0.00000001 Ry

     total magnetization       =     0.00 Bohr mag/cell
     absolute magnetization    =     0.00 Bohr mag/cell

     iteration # 22     ecut=    90.00 Ry     beta= 0.20
     Davidson diagonalization with overlap
     ethr =  2.89E-12,  avg # of iterations =  1.0

     negative rho (up, down):  1.899E-03 1.899E-03

     total cpu time spent up to now is    12327.8 secs

     total energy              =   -1895.76100854 Ry
     estimated scf accuracy    <          1.8E-09 Ry

     total magnetization       =     0.00 Bohr mag/cell
     absolute magnetization    =     0.00 Bohr mag/cell

     iteration # 23     ecut=    90.00 Ry     beta= 0.20
     Davidson diagonalization with overlap
     ethr =  1.47E-12,  avg # of iterations =  1.0

     negative rho (up, down):  1.899E-03 1.899E-03

     total cpu time spent up to now is    12364.5 secs

     total energy              =   -1895.76100854 Ry
     estimated scf accuracy    <          1.7E-09 Ry

     total magnetization       =     0.00 Bohr mag/cell
     absolute magnetization    =     0.00 Bohr mag/cell

     iteration # 24     ecut=    90.00 Ry     beta= 0.20
     Davidson diagonalization with overlap
     ethr =  1.38E-12,  avg # of iterations =  1.0

     negative rho (up, down):  1.899E-03 1.899E-03

     total cpu time spent up to now is    12401.2 secs

     total energy              =   -1895.76100854 Ry
     estimated scf accuracy    <          1.8E-09 Ry

     total magnetization       =     0.00 Bohr mag/cell
     absolute magnetization    =     0.00 Bohr mag/cell

     iteration # 25     ecut=    90.00 Ry     beta= 0.20
     Davidson diagonalization with overlap
     ethr =  1.38E-12,  avg # of iterations =  1.0

     negative rho (up, down):  1.899E-03 1.899E-03

     total cpu time spent up to now is    12437.9 secs

     total energy              =   -1895.76100853 Ry
     estimated scf accuracy    <          2.5E-09 Ry

     total magnetization       =     0.00 Bohr mag/cell
     absolute magnetization    =     0.00 Bohr mag/cell

     iteration # 26     ecut=    90.00 Ry     beta= 0.20
     Davidson diagonalization with overlap
     ethr =  1.38E-12,  avg # of iterations =  1.0

     negative rho (up, down):  1.899E-03 1.899E-03

     total cpu time spent up to now is    12474.6 secs

     total energy              =   -1895.76100853 Ry
     estimated scf accuracy    <          2.3E-09 Ry

     total magnetization       =     0.00 Bohr mag/cell
     absolute magnetization    =     0.00 Bohr mag/cell

     iteration # 27     ecut=    90.00 Ry     beta= 0.20
     Davidson diagonalization with overlap
     ethr =  1.38E-12,  avg # of iterations =  1.1

     negative rho (up, down):  1.899E-03 1.899E-03

     total cpu time spent up to now is    12511.7 secs

     total energy              =   -1895.76100853 Ry
     estimated scf accuracy    <          1.6E-09 Ry

     total magnetization       =     0.00 Bohr mag/cell
     absolute magnetization    =     0.00 Bohr mag/cell

     iteration # 28     ecut=    90.00 Ry     beta= 0.20
     Davidson diagonalization with overlap
     ethr =  1.25E-12,  avg # of iterations =  1.0

     negative rho (up, down):  1.899E-03 1.899E-03

     total cpu time spent up to now is    12548.4 secs

     total energy              =   -1895.76100853 Ry
     estimated scf accuracy    <          1.5E-09 Ry

     total magnetization       =     0.00 Bohr mag/cell
     absolute magnetization    =     0.00 Bohr mag/cell

     iteration # 29     ecut=    90.00 Ry     beta= 0.20
     Davidson diagonalization with overlap
     ethr =  1.20E-12,  avg # of iterations =  2.8

     negative rho (up, down):  1.899E-03 1.899E-03

     total cpu time spent up to now is    12596.9 secs

     total energy              =   -1895.76100853 Ry
     estimated scf accuracy    <          4.0E-09 Ry

     total magnetization       =     0.00 Bohr mag/cell
     absolute magnetization    =     0.00 Bohr mag/cell

     iteration # 30     ecut=    90.00 Ry     beta= 0.20
     Davidson diagonalization with overlap
     ethr =  1.20E-12,  avg # of iterations =  1.4

     negative rho (up, down):  1.899E-03 1.899E-03

     total cpu time spent up to now is    12635.6 secs

     total energy              =   -1895.76100853 Ry
     estimated scf accuracy    <          1.9E-09 Ry

     total magnetization       =     0.00 Bohr mag/cell
     absolute magnetization    =     0.00 Bohr mag/cell

     iteration # 31     ecut=    90.00 Ry     beta= 0.20
     Davidson diagonalization with overlap
     ethr =  1.20E-12,  avg # of iterations =  4.0

     negative rho (up, down):  1.899E-03 1.900E-03

     total cpu time spent up to now is    12689.3 secs

     total energy              =   -1895.76100853 Ry
     estimated scf accuracy    <          6.2E-09 Ry

     total magnetization       =     0.00 Bohr mag/cell
     absolute magnetization    =     0.00 Bohr mag/cell

     iteration # 32     ecut=    90.00 Ry     beta= 0.20
     Davidson diagonalization with overlap
     ethr =  1.20E-12,  avg # of iterations =  3.3

     negative rho (up, down):  1.899E-03 1.899E-03

     total cpu time spent up to now is    12739.2 secs

     total energy              =   -1895.76100853 Ry
     estimated scf accuracy    <          2.3E-09 Ry

     total magnetization       =     0.00 Bohr mag/cell
     absolute magnetization    =     0.00 Bohr mag/cell

     iteration # 33     ecut=    90.00 Ry     beta= 0.20
     Davidson diagonalization with overlap
     ethr =  1.20E-12,  avg # of iterations =  1.8

     negative rho (up, down):  1.899E-03 1.900E-03

     total cpu time spent up to now is    12780.4 secs

     total energy              =   -1895.76100853 Ry
     estimated scf accuracy    <          4.1E-09 Ry

     total magnetization       =     0.00 Bohr mag/cell
     absolute magnetization    =     0.00 Bohr mag/cell

     iteration # 34     ecut=    90.00 Ry     beta= 0.20
     Davidson diagonalization with overlap
     ethr =  1.20E-12,  avg # of iterations =  4.7

     negative rho (up, down):  1.899E-03 1.900E-03

     Magnetic moment per site:
     atom:    1    charge:   11.6709    magn:   -0.0001    constr:    0.0000
     atom:    2    charge:   15.1376    magn:    0.0004    constr:    0.0000
     atom:    3    charge:   11.5813    magn:    0.0008    constr:    0.0000
     atom:    4    charge:   15.1572    magn:   -0.0006    constr:    0.0000
     atom:    5    charge:   11.5960    magn:   -0.0000    constr:    0.0000
     atom:    6    charge:   15.1238    magn:    0.0001    constr:    0.0000
     atom:    7    charge:   11.6255    magn:   -0.0003    constr:    0.0000
     atom:    8    charge:   15.1434    magn:    0.0007    constr:    0.0000

     total cpu time spent up to now is    12842.7 secs

     End of self-consistent calculation

     Number of k-points >= 100: set verbosity='high' to print the bands.

     the Fermi energy is    17.0492 ev

!    total energy              =   -1895.76100853 Ry
     estimated scf accuracy    <          5.3E-10 Ry
     smearing contrib. (-TS)   =      -0.00799426 Ry
     internal energy E=F+TS    =   -1895.75301427 Ry

     The total energy is F=E-TS. E is the sum of the following terms:
     one-electron contribution =    -942.41973642 Ry
     hartree contribution      =     539.07524265 Ry
     xc contribution           =    -219.79051314 Ry
     ewald contribution        =   -1272.61800736 Ry

     total magnetization       =     0.00 Bohr mag/cell
     absolute magnetization    =     0.00 Bohr mag/cell

     convergence has been achieved in  34 iterations

     negative rho (up, down):  1.899E-03 1.900E-03

     Forces acting on atoms (cartesian axes, Ry/au):

     atom    1 type  1   force =    -0.00001018    0.00147434    0.00061246
     atom    2 type  2   force =    -0.00051529    0.00128089   -0.00061653
     atom    3 type  1   force =     0.00106414    0.00086018   -0.00165761
     atom    4 type  2   force =     0.00016070   -0.00277617    0.00100348
     atom    5 type  1   force =    -0.00056278   -0.00121199   -0.00131089
     atom    6 type  2   force =     0.00027574    0.00095178    0.00139770
     atom    7 type  1   force =    -0.00045389   -0.00094613    0.00065160
     atom    8 type  2   force =     0.00004156    0.00036711   -0.00008021

     Total force =     0.005129     Total SCF correction =     0.000049


     Computing stress (Cartesian axis) and pressure


     negative rho (up, down):  1.899E-03 1.900E-03
          total   stress  (Ry/bohr**3)                   (kbar)     P=     -169.59
  -0.00089329   0.00003471   0.00002509         -131.41        5.11        3.69
   0.00003471  -0.00135991  -0.00009864            5.11     -200.05      -14.51
   0.00002509  -0.00009864  -0.00120532            3.69      -14.51     -177.31

     Energy error            =      1.2E-04
     Gradient error          =      2.8E-03

     number of scf cycles    =  19
     number of bfgs steps    =  11

     energy   old            =   -1895.7608913444 Ry
     energy   new            =   -1895.7610085303 Ry

     CASE: energy  _new < energy  _old

     new trust radius        =       0.0234659587 bohr
     new conv_thr            =       0.0000000012 Ry


ATOMIC_POSITIONS (angstrom)
Cr            0.6167412061        2.0371714737       -1.1868531285
Co            2.7346949816        0.3903759200        2.3099995597
Cr            0.4071012106       -0.4536390660        2.2429186532
Co            1.9522078439        2.7325004969        1.0406043067
Cr            1.6370966737        0.4040327526        0.0143333338
Co           -0.3493201364        1.8821680810        1.1006209443
Cr            2.7785004384        2.6223979902        3.3205375833
Co           -0.6739176920       -0.4099828295        0.0335400251



     Writing output data file ./pwscf.save/
     NEW-OLD atomic charge density approx. for the potential

     Check: negative core charge=   -0.000010

     negative rho (up, down):  1.903E-03 1.904E-03
     Generating pointlists ...

     total cpu time spent up to now is    12867.3 secs

     Self-consistent Calculation

     iteration #  1     ecut=    90.00 Ry     beta= 0.20
     Davidson diagonalization with overlap
