 # File generated with Atomsk by kevin on 2022-03-20 17:47:58
 
           8  atoms
           2  atom types
 
      0.000000000000       4.614400000000  xlo xhi
      0.000000000000       4.591328000000  ylo yhi
      0.000000000000       4.614400000000  zlo zhi
 
Masses
 
            1   58.93319500             # Co
            2   51.99610000             # Cr
 
Atoms # atomic
 
         1    1       -0.006367070734       0.001340998572       0.001540784017
         2    2        2.315314043967       2.290805302262       2.304515951732
         3    1       -0.006367070734       2.297004998572       2.308740784017
         4    2        2.315314043967      -0.004858697738      -0.002684048268
         5    1        2.300832929266       2.297004998572       0.001540784017
         6    2       -0.006367070734       0.001340998572       2.308740784017
         7    1        2.300832929266       0.001340998572       2.308740784017
         8    2       -0.006367070734       2.297004998572       0.001540784017
