 # File generated with Atomsk by kevin on 2022-03-20 17:47:58
 
           8  atoms
           2  atom types
 
      0.000000000000       4.614400000000  xlo xhi
      0.000000000000       4.614400000000  ylo yhi
      0.000000000000       4.614400000000  zlo zhi
      0.000000000000       0.000000000000      -0.023072000000  xy xz yz
 
Masses
 
            1   58.93319500             # Co
            2   51.99610000             # Cr
 
Atoms # atomic
 
         1    1        0.005733060909      -0.007483881173       0.005446536809
         2    2        2.308808847223       2.286908823158       2.305772592436
         3    1        0.005733060909       2.288180118827       2.312646536809
         4    2        2.308808847223      -0.008755176842      -0.001427407564
         5    1        2.312933060909       2.299716118827       0.005446536809
         6    2        0.005733060909      -0.019019881173       2.312646536809
         7    1        2.312933060909      -0.019019881173       2.312646536809
         8    2        0.005733060909       2.299716118827       0.005446536809
