 # File generated with Atomsk by kevin on 2022-03-20 17:47:58
 
           8  atoms
           2  atom types
 
      0.000000000000       4.591328000000  xlo xhi
      0.000000000000       4.614400000000  ylo yhi
      0.000000000000       4.614400000000  zlo zhi
 
Masses
 
            1   58.93319500             # Co
            2   51.99610000             # Cr
 
Atoms # atomic
 
         1    1        0.005195471939       0.000458904868      -0.002584526778
         2    2        2.300279586275       2.312097400765       2.312624293325
         3    1        0.005195471939       2.307658904868       2.304615473222
         4    2        2.300279586275       0.004897400765       0.005424293325
         5    1        2.300859471939       2.307658904868      -0.002584526778
         6    2        0.005195471939       0.000458904868       2.304615473222
         7    1        2.300859471939       0.000458904868       2.304615473222
         8    2        0.005195471939       2.307658904868      -0.002584526778
