
     Program PWSCF v.6.7MaX starts on 22Mar2022 at 10:47:33 

     This program is part of the open-source Quantum ESPRESSO suite
     for quantum simulation of materials; please cite
         "P. Giannozzi et al., J. Phys.:Condens. Matter 21 395502 (2009);
         "P. Giannozzi et al., J. Phys.:Condens. Matter 29 465901 (2017);
          URL http://www.quantum-espresso.org", 
     in publications or presentations arising from this work. More details at
     http://www.quantum-espresso.org/quote

     Parallel version (MPI), running on    24 processors

     MPI processes distributed on     1 nodes
     R & G space division:  proc/nbgrp/npool/nimage =      24
     Reading input from /home/kevin/QE_CoCrFeMnNi/CoCrFeMnNi/Opt/binary/Opt-B1-CoCr/Mix/elastic/Chg_1-B1-CoCr.in

     Current dimensions of program PWSCF are:
     Max number of different atomic species (ntypx) = 10
     Max number of k-points (npk) =  40000
     Max angular momentum in pseudopotentials (lmaxx) =  3

     Subspace diagonalization in iterative solution of the eigenvalue problem:
     a serial algorithm will be used

     Found symmetry operation: I + (  0.0000 -0.5000  0.5000)
     This is a supercell, fractional translations are disabled

     Parallelization info
     --------------------
     sticks:   dense  smooth     PW     G-vecs:    dense   smooth      PW
     Min         273      91     25                16637     3205     483
     Max         274      93     26                16640     3206     486
     Sum        6565    2197    617               399311    76925   11625



     bravais-lattice index     =            0
     lattice parameter (alat)  =       8.7636  a.u.
     unit-cell volume          =     666.3592 (a.u.)^3
     number of atoms/cell      =            8
     number of atomic types    =            2
     number of electrons       =       124.00
     number of Kohn-Sham states=           74
     kinetic-energy cutoff     =      90.0000  Ry
     charge density cutoff     =    1080.0000  Ry
     scf convergence threshold =      1.0E-08
     mixing beta               =       0.2000
     number of iterations used =            8  plain     mixing
     energy convergence thresh.=      1.0E-05
     force convergence thresh. =      1.0E-04
     Exchange-correlation= SLA  PW   PBE  PBE
                           (   1   4   3   4   0   0   0)
     nstep                     =          100


     celldm(1)=   8.763552  celldm(2)=   0.000000  celldm(3)=   0.000000
     celldm(4)=   0.000000  celldm(5)=   0.000000  celldm(6)=   0.000000

     crystal axes: (cart. coord. in units of alat)
               a(1) = (   1.000000   0.000000   0.000000 )  
               a(2) = (   0.000000   0.995025   0.000000 )  
               a(3) = (   0.000000   0.000000   0.995025 )  

     reciprocal axes: (cart. coord. in units 2 pi/alat)
               b(1) = (  1.000000  0.000000  0.000000 )  
               b(2) = (  0.000000  1.005000  0.000000 )  
               b(3) = (  0.000000  0.000000  1.005000 )  


     PseudoPot. # 1 for Cr read from file:
     /opt/QEpot/SSSP_efficiency_pseudos/cr_pbe_v1.5.uspp.F.UPF
     MD5 check sum: 0d52af634a40206e4dee301ad30da4bf
     Pseudo is Ultrasoft + core correction, Zval = 14.0
     Generated by new atomic code, or converted to UPF format
     Using radial grid of  857 points,  6 beta functions with: 
                l(1) =   0
                l(2) =   0
                l(3) =   1
                l(4) =   1
                l(5) =   2
                l(6) =   2
     Q(r) pseudized with  8 coefficients,  rinner =    0.950   0.950   0.950
                                                       0.950   0.950

     PseudoPot. # 2 for Co read from file:
     /opt/QEpot/SSSP_efficiency_pseudos/Co_pbe_v1.2.uspp.F.UPF
     MD5 check sum: 5f91765df6ddd3222702df6e7b74a16d
     Pseudo is Ultrasoft + core correction, Zval = 17.0
     Generated by new atomic code, or converted to UPF format
     Using radial grid of  863 points,  6 beta functions with: 
                l(1) =   0
                l(2) =   0
                l(3) =   1
                l(4) =   1
                l(5) =   2
                l(6) =   2
     Q(r) pseudized with  8 coefficients,  rinner =    1.200   1.200   1.200
                                                       1.200   1.200

     atomic species   valence    mass     pseudopotential
        Cr            14.00    51.99610     Cr( 1.00)
        Co            17.00    58.93300     Co( 1.00)

     Starting magnetic structure 
     atomic species   magnetization
        Cr           0.000
        Co           0.000

     No symmetry found



   Cartesian axes

     site n.     atom                  positions (alat units)
         1           Cr  tau(   1) = (  -0.0000275   0.4959994  -0.0013275  )
         2           Co  tau(   2) = (   0.5000683  -0.0012008   0.4962942  )
         3           Cr  tau(   3) = (  -0.0000275  -0.0015131   0.4961849  )
         4           Co  tau(   4) = (   0.5000682   0.4963115  -0.0012184  )
         5           Cr  tau(   5) = (   0.4988760   0.0006810  -0.0005697  )
         6           Co  tau(   6) = (  -0.0002549   0.4959377   0.4961634  )
         7           Cr  tau(   7) = (   0.4988760   0.4981934   0.4969427  )
         8           Co  tau(   8) = (  -0.0002548  -0.0015750  -0.0013490  )

     number of k points=   112  Gaussian smearing, width (Ry)=  0.0100

     Number of k-points >= 100: set verbosity='high' to print them.

     Dense  grid:   399311 G-vectors     FFT dimensions: (  96,  96,  96)

     Smooth grid:    76925 G-vectors     FFT dimensions: (  54,  54,  54)

     Estimated max dynamical RAM per process >     175.53 MB

     Estimated total dynamical RAM >       4.11 GB

     Check: negative core charge=   -0.000010
     Generating pointlists ...
     new r_m :   0.2044 (alat units)  1.7917 (a.u.) for type    1
     new r_m :   0.2044 (alat units)  1.7917 (a.u.) for type    2

     Initial potential from superposition of free atoms

     starting charge  115.99991, renormalised to  124.00000

     negative rho (up, down):  1.657E-03 1.657E-03
     Starting wfcs are   92 randomized atomic wfcs

     total cpu time spent up to now is       25.1 secs

     Self-consistent Calculation

     iteration #  1     ecut=    90.00 Ry     beta= 0.20
     Davidson diagonalization with overlap
     ethr =  1.00E-02,  avg # of iterations =  3.0

     negative rho (up, down):  1.125E-03 1.125E-03

     total cpu time spent up to now is      112.1 secs

     total energy              =   -1872.57344462 Ry
     estimated scf accuracy    <     112.54632120 Ry

     total magnetization       =    -0.00 Bohr mag/cell
     absolute magnetization    =     0.01 Bohr mag/cell

     iteration #  2     ecut=    90.00 Ry     beta= 0.20
     Davidson diagonalization with overlap
     ethr =  1.00E-02,  avg # of iterations =  5.2

     negative rho (up, down):  1.798E-03 1.798E-03

     total cpu time spent up to now is      214.1 secs

     total energy              =   -1895.33757501 Ry
     estimated scf accuracy    <      61.87442851 Ry

     total magnetization       =     0.00 Bohr mag/cell
     absolute magnetization    =     0.01 Bohr mag/cell

     iteration #  3     ecut=    90.00 Ry     beta= 0.20
     Davidson diagonalization with overlap
     ethr =  1.00E-02,  avg # of iterations =  2.8

     negative rho (up, down):  5.121E-03 5.119E-03

     total cpu time spent up to now is      279.7 secs

     total energy              =   -1886.38995354 Ry
     estimated scf accuracy    <      20.28170989 Ry

     total magnetization       =    -0.01 Bohr mag/cell
     absolute magnetization    =     0.02 Bohr mag/cell

     iteration #  4     ecut=    90.00 Ry     beta= 0.20
     Davidson diagonalization with overlap
     ethr =  1.00E-02,  avg # of iterations =  5.4

     negative rho (up, down):  1.798E-03 1.800E-03

     total cpu time spent up to now is      384.2 secs

     total energy              =   -1882.82398655 Ry
     estimated scf accuracy    <     183.80513034 Ry

     total magnetization       =     0.01 Bohr mag/cell
     absolute magnetization    =     0.04 Bohr mag/cell

     iteration #  5     ecut=    90.00 Ry     beta= 0.20
     Davidson diagonalization with overlap
     ethr =  1.00E-02,  avg # of iterations =  5.3

     negative rho (up, down):  1.794E-03 1.797E-03

     total cpu time spent up to now is      478.4 secs

     total energy              =   -1895.38857831 Ry
     estimated scf accuracy    <       6.32575007 Ry

     total magnetization       =    -0.01 Bohr mag/cell
     absolute magnetization    =     0.03 Bohr mag/cell

     iteration #  6     ecut=    90.00 Ry     beta= 0.20
     Davidson diagonalization with overlap
     ethr =  5.10E-03,  avg # of iterations =  1.3

     negative rho (up, down):  1.780E-03 1.784E-03

     total cpu time spent up to now is      529.9 secs

     total energy              =   -1895.44165525 Ry
     estimated scf accuracy    <       2.68737953 Ry

     total magnetization       =    -0.00 Bohr mag/cell
     absolute magnetization    =     0.03 Bohr mag/cell

     iteration #  7     ecut=    90.00 Ry     beta= 0.20
     Davidson diagonalization with overlap
     ethr =  2.17E-03,  avg # of iterations =  1.7

     negative rho (up, down):  1.742E-03 1.747E-03

     total cpu time spent up to now is      582.6 secs

     total energy              =   -1895.30345732 Ry
     estimated scf accuracy    <       2.39016368 Ry

     total magnetization       =     0.01 Bohr mag/cell
     absolute magnetization    =     0.02 Bohr mag/cell

     iteration #  8     ecut=    90.00 Ry     beta= 0.20
     Davidson diagonalization with overlap
     ethr =  1.93E-03,  avg # of iterations =  1.2

     negative rho (up, down):  1.696E-03 1.701E-03

     total cpu time spent up to now is      633.2 secs

     total energy              =   -1895.34152954 Ry
     estimated scf accuracy    <       0.30963355 Ry

     total magnetization       =     0.00 Bohr mag/cell
     absolute magnetization    =     0.02 Bohr mag/cell

     iteration #  9     ecut=    90.00 Ry     beta= 0.20
     Davidson diagonalization with overlap
     ethr =  2.50E-04,  avg # of iterations =  5.9

     negative rho (up, down):  1.649E-03 1.655E-03

     total cpu time spent up to now is      708.1 secs

     total energy              =   -1895.37058598 Ry
     estimated scf accuracy    <       0.08004043 Ry

     total magnetization       =     0.01 Bohr mag/cell
     absolute magnetization    =     0.02 Bohr mag/cell

     iteration # 10     ecut=    90.00 Ry     beta= 0.20
     Davidson diagonalization with overlap
     ethr =  6.45E-05,  avg # of iterations =  5.4

     negative rho (up, down):  1.616E-03 1.622E-03

     total cpu time spent up to now is      781.8 secs

     total energy              =   -1895.42753803 Ry
     estimated scf accuracy    <       0.52233629 Ry

     total magnetization       =     0.01 Bohr mag/cell
     absolute magnetization    =     0.02 Bohr mag/cell

     iteration # 11     ecut=    90.00 Ry     beta= 0.20
     Davidson diagonalization with overlap
     ethr =  6.45E-05,  avg # of iterations =  1.4

     negative rho (up, down):  1.614E-03 1.621E-03

     total cpu time spent up to now is      834.1 secs

     total energy              =   -1895.32965614 Ry
     estimated scf accuracy    <       0.70021038 Ry

     total magnetization       =     0.01 Bohr mag/cell
     absolute magnetization    =     0.02 Bohr mag/cell

     iteration # 12     ecut=    90.00 Ry     beta= 0.20
     Davidson diagonalization with overlap
     ethr =  6.45E-05,  avg # of iterations =  5.6

     negative rho (up, down):  1.606E-03 1.613E-03

     total cpu time spent up to now is      912.9 secs

     total energy              =   -1895.38750657 Ry
     estimated scf accuracy    <       0.20515595 Ry

     total magnetization       =     0.02 Bohr mag/cell
     absolute magnetization    =     0.02 Bohr mag/cell

     iteration # 13     ecut=    90.00 Ry     beta= 0.20
     Davidson diagonalization with overlap
     ethr =  6.45E-05,  avg # of iterations =  1.1

     negative rho (up, down):  1.596E-03 1.605E-03

     total cpu time spent up to now is      963.1 secs

     total energy              =   -1895.39910009 Ry
     estimated scf accuracy    <       0.02773384 Ry

     total magnetization       =     0.01 Bohr mag/cell
     absolute magnetization    =     0.02 Bohr mag/cell

     iteration # 14     ecut=    90.00 Ry     beta= 0.20
     Davidson diagonalization with overlap
     ethr =  2.24E-05,  avg # of iterations =  5.3

     negative rho (up, down):  1.594E-03 1.603E-03

     total cpu time spent up to now is     1044.8 secs

     total energy              =   -1895.35220948 Ry
     estimated scf accuracy    <       0.72554547 Ry

     total magnetization       =     0.02 Bohr mag/cell
     absolute magnetization    =     0.02 Bohr mag/cell

     iteration # 15     ecut=    90.00 Ry     beta= 0.20
     Davidson diagonalization with overlap
     ethr =  2.24E-05,  avg # of iterations =  5.4

     negative rho (up, down):  1.604E-03 1.613E-03

     total cpu time spent up to now is     1126.7 secs

     total energy              =   -1895.39320182 Ry
     estimated scf accuracy    <       0.02266954 Ry

     total magnetization       =     0.02 Bohr mag/cell
     absolute magnetization    =     0.02 Bohr mag/cell

     iteration # 16     ecut=    90.00 Ry     beta= 0.20
     Davidson diagonalization with overlap
     ethr =  1.83E-05,  avg # of iterations =  1.3

     negative rho (up, down):  1.591E-03 1.600E-03

     total cpu time spent up to now is     1177.7 secs

     total energy              =   -1895.39218192 Ry
     estimated scf accuracy    <       0.02372553 Ry

     total magnetization       =     0.02 Bohr mag/cell
     absolute magnetization    =     0.02 Bohr mag/cell

     iteration # 17     ecut=    90.00 Ry     beta= 0.20
     Davidson diagonalization with overlap
     ethr =  1.83E-05,  avg # of iterations =  1.0

     negative rho (up, down):  1.597E-03 1.608E-03

     total cpu time spent up to now is     1227.4 secs

     total energy              =   -1895.39199965 Ry
     estimated scf accuracy    <       0.00631873 Ry

     total magnetization       =     0.02 Bohr mag/cell
     absolute magnetization    =     0.02 Bohr mag/cell

     iteration # 18     ecut=    90.00 Ry     beta= 0.20
     Davidson diagonalization with overlap
     ethr =  5.10E-06,  avg # of iterations =  2.5

     negative rho (up, down):  1.596E-03 1.607E-03

     total cpu time spent up to now is     1285.9 secs

     total energy              =   -1895.39231862 Ry
     estimated scf accuracy    <       0.00077139 Ry

     total magnetization       =     0.02 Bohr mag/cell
     absolute magnetization    =     0.02 Bohr mag/cell

     iteration # 19     ecut=    90.00 Ry     beta= 0.20
     Davidson diagonalization with overlap
     ethr =  6.22E-07,  avg # of iterations =  5.9

     negative rho (up, down):  1.598E-03 1.611E-03

     total cpu time spent up to now is     1356.2 secs

     total energy              =   -1895.39232448 Ry
     estimated scf accuracy    <       0.00052025 Ry

     total magnetization       =     0.02 Bohr mag/cell
     absolute magnetization    =     0.02 Bohr mag/cell

     iteration # 20     ecut=    90.00 Ry     beta= 0.20
     Davidson diagonalization with overlap
     ethr =  4.20E-07,  avg # of iterations =  2.1

     negative rho (up, down):  1.598E-03 1.610E-03

     total cpu time spent up to now is     1413.5 secs

     total energy              =   -1895.39236007 Ry
     estimated scf accuracy    <       0.00023720 Ry

     total magnetization       =     0.02 Bohr mag/cell
     absolute magnetization    =     0.02 Bohr mag/cell

     iteration # 21     ecut=    90.00 Ry     beta= 0.20
     Davidson diagonalization with overlap
     ethr =  1.91E-07,  avg # of iterations =  1.2

     negative rho (up, down):  1.598E-03 1.612E-03

     total cpu time spent up to now is     1464.6 secs

     total energy              =   -1895.39237407 Ry
     estimated scf accuracy    <       0.00005634 Ry

     total magnetization       =     0.02 Bohr mag/cell
     absolute magnetization    =     0.02 Bohr mag/cell

     iteration # 22     ecut=    90.00 Ry     beta= 0.20
     Davidson diagonalization with overlap
     ethr =  4.54E-08,  avg # of iterations =  2.6

     negative rho (up, down):  1.599E-03 1.615E-03

     total cpu time spent up to now is     1522.0 secs

     total energy              =   -1895.39237584 Ry
     estimated scf accuracy    <       0.00003839 Ry

     total magnetization       =     0.02 Bohr mag/cell
     absolute magnetization    =     0.03 Bohr mag/cell

     iteration # 23     ecut=    90.00 Ry     beta= 0.20
     Davidson diagonalization with overlap
     ethr =  3.10E-08,  avg # of iterations =  1.9

     negative rho (up, down):  1.599E-03 1.614E-03

     total cpu time spent up to now is     1576.1 secs

     total energy              =   -1895.39237628 Ry
     estimated scf accuracy    <       0.00002131 Ry

     total magnetization       =     0.03 Bohr mag/cell
     absolute magnetization    =     0.03 Bohr mag/cell

     iteration # 24     ecut=    90.00 Ry     beta= 0.20
     Davidson diagonalization with overlap
     ethr =  1.72E-08,  avg # of iterations =  1.4

     negative rho (up, down):  1.598E-03 1.615E-03

     total cpu time spent up to now is     1628.6 secs

     total energy              =   -1895.39237718 Ry
     estimated scf accuracy    <       0.00000428 Ry

     total magnetization       =     0.03 Bohr mag/cell
     absolute magnetization    =     0.03 Bohr mag/cell

     iteration # 25     ecut=    90.00 Ry     beta= 0.20
     Davidson diagonalization with overlap
     ethr =  3.46E-09,  avg # of iterations =  3.3

     negative rho (up, down):  1.597E-03 1.618E-03

     total cpu time spent up to now is     1687.6 secs

     total energy              =   -1895.39237739 Ry
     estimated scf accuracy    <       0.00000232 Ry

     total magnetization       =     0.03 Bohr mag/cell
     absolute magnetization    =     0.03 Bohr mag/cell

     iteration # 26     ecut=    90.00 Ry     beta= 0.20
     Davidson diagonalization with overlap
     ethr =  1.87E-09,  avg # of iterations =  2.5

     negative rho (up, down):  1.597E-03 1.617E-03

     total cpu time spent up to now is     1745.6 secs

     total energy              =   -1895.39237716 Ry
     estimated scf accuracy    <       0.00000608 Ry

     total magnetization       =     0.04 Bohr mag/cell
     absolute magnetization    =     0.04 Bohr mag/cell

     iteration # 27     ecut=    90.00 Ry     beta= 0.20
     Davidson diagonalization with overlap
     ethr =  1.87E-09,  avg # of iterations =  1.7

     negative rho (up, down):  1.596E-03 1.618E-03

     total cpu time spent up to now is     1800.0 secs

     total energy              =   -1895.39237745 Ry
     estimated scf accuracy    <       0.00000699 Ry

     total magnetization       =     0.03 Bohr mag/cell
     absolute magnetization    =     0.03 Bohr mag/cell

     iteration # 28     ecut=    90.00 Ry     beta= 0.20
     Davidson diagonalization with overlap
     ethr =  1.87E-09,  avg # of iterations =  1.1

     negative rho (up, down):  1.595E-03 1.618E-03

     total cpu time spent up to now is     1850.5 secs

     total energy              =   -1895.39237770 Ry
     estimated scf accuracy    <       0.00000156 Ry

     total magnetization       =     0.04 Bohr mag/cell
     absolute magnetization    =     0.04 Bohr mag/cell

     iteration # 29     ecut=    90.00 Ry     beta= 0.20
     Davidson diagonalization with overlap
     ethr =  1.26E-09,  avg # of iterations =  1.1

     negative rho (up, down):  1.595E-03 1.619E-03

     total cpu time spent up to now is     1900.7 secs

     total energy              =   -1895.39237791 Ry
     estimated scf accuracy    <       0.00000071 Ry

     total magnetization       =     0.04 Bohr mag/cell
     absolute magnetization    =     0.04 Bohr mag/cell

     iteration # 30     ecut=    90.00 Ry     beta= 0.20
     Davidson diagonalization with overlap
     ethr =  5.69E-10,  avg # of iterations =  2.0

     negative rho (up, down):  1.594E-03 1.619E-03

     total cpu time spent up to now is     1955.0 secs

     total energy              =   -1895.39237798 Ry
     estimated scf accuracy    <       0.00000066 Ry

     total magnetization       =     0.04 Bohr mag/cell
     absolute magnetization    =     0.04 Bohr mag/cell

     iteration # 31     ecut=    90.00 Ry     beta= 0.20
     Davidson diagonalization with overlap
     ethr =  5.36E-10,  avg # of iterations =  1.1

     negative rho (up, down):  1.594E-03 1.620E-03

     total cpu time spent up to now is     2004.8 secs

     total energy              =   -1895.39237803 Ry
     estimated scf accuracy    <       0.00000076 Ry

     total magnetization       =     0.04 Bohr mag/cell
     absolute magnetization    =     0.04 Bohr mag/cell

     iteration # 32     ecut=    90.00 Ry     beta= 0.20
     Davidson diagonalization with overlap
     ethr =  5.36E-10,  avg # of iterations =  1.2

     negative rho (up, down):  1.595E-03 1.619E-03

     total cpu time spent up to now is     2055.6 secs

     total energy              =   -1895.39237792 Ry
     estimated scf accuracy    <       0.00000076 Ry

     total magnetization       =     0.04 Bohr mag/cell
     absolute magnetization    =     0.04 Bohr mag/cell

     iteration # 33     ecut=    90.00 Ry     beta= 0.20
     Davidson diagonalization with overlap
     ethr =  5.36E-10,  avg # of iterations =  1.0

     negative rho (up, down):  1.595E-03 1.619E-03

     total cpu time spent up to now is     2104.9 secs

     total energy              =   -1895.39237778 Ry
     estimated scf accuracy    <       0.00000093 Ry

     total magnetization       =     0.04 Bohr mag/cell
     absolute magnetization    =     0.04 Bohr mag/cell

     iteration # 34     ecut=    90.00 Ry     beta= 0.20
     Davidson diagonalization with overlap
     ethr =  5.36E-10,  avg # of iterations =  1.0

     negative rho (up, down):  1.601E-03 1.614E-03

     total cpu time spent up to now is     2154.2 secs

     total energy              =   -1895.39237583 Ry
     estimated scf accuracy    <       0.00000124 Ry

     total magnetization       =     0.04 Bohr mag/cell
     absolute magnetization    =     0.04 Bohr mag/cell

     iteration # 35     ecut=    90.00 Ry     beta= 0.20
     Davidson diagonalization with overlap
     ethr =  5.36E-10,  avg # of iterations =  5.1

     negative rho (up, down):  1.606E-03 1.609E-03

     total cpu time spent up to now is     2228.6 secs

     total energy              =   -1895.39237574 Ry
     estimated scf accuracy    <       0.00000054 Ry

     total magnetization       =     0.02 Bohr mag/cell
     absolute magnetization    =     0.02 Bohr mag/cell

     iteration # 36     ecut=    90.00 Ry     beta= 0.20
     Davidson diagonalization with overlap
     ethr =  4.32E-10,  avg # of iterations =  5.3

     negative rho (up, down):  1.607E-03 1.607E-03

     total cpu time spent up to now is     2304.3 secs

     total energy              =   -1895.39237634 Ry
     estimated scf accuracy    <       0.00000075 Ry

     total magnetization       =     0.01 Bohr mag/cell
     absolute magnetization    =     0.01 Bohr mag/cell

     iteration # 37     ecut=    90.00 Ry     beta= 0.20
     Davidson diagonalization with overlap
     ethr =  4.32E-10,  avg # of iterations =  1.4

     negative rho (up, down):  1.607E-03 1.607E-03

     total cpu time spent up to now is     2356.8 secs

     total energy              =   -1895.39237642 Ry
     estimated scf accuracy    <       0.00000016 Ry

     total magnetization       =     0.00 Bohr mag/cell
     absolute magnetization    =     0.01 Bohr mag/cell

     iteration # 38     ecut=    90.00 Ry     beta= 0.20
     Davidson diagonalization with overlap
     ethr =  1.25E-10,  avg # of iterations =  3.0

     negative rho (up, down):  1.607E-03 1.607E-03

     total cpu time spent up to now is     2417.3 secs

     total energy              =   -1895.39237643 Ry
     estimated scf accuracy    <       0.00000027 Ry

     total magnetization       =     0.00 Bohr mag/cell
     absolute magnetization    =     0.01 Bohr mag/cell

     iteration # 39     ecut=    90.00 Ry     beta= 0.20
     Davidson diagonalization with overlap
     ethr =  1.25E-10,  avg # of iterations =  1.3

     negative rho (up, down):  1.607E-03 1.607E-03

     total cpu time spent up to now is     2468.2 secs

     total energy              =   -1895.39237643 Ry
     estimated scf accuracy    <       0.00000007 Ry

     total magnetization       =     0.00 Bohr mag/cell
     absolute magnetization    =     0.01 Bohr mag/cell

     iteration # 40     ecut=    90.00 Ry     beta= 0.20
     Davidson diagonalization with overlap
     ethr =  5.76E-11,  avg # of iterations =  2.3

     negative rho (up, down):  1.607E-03 1.607E-03

     total cpu time spent up to now is     2524.3 secs

     total energy              =   -1895.39237644 Ry
     estimated scf accuracy    <       0.00000009 Ry

     total magnetization       =     0.00 Bohr mag/cell
     absolute magnetization    =     0.01 Bohr mag/cell

     iteration # 41     ecut=    90.00 Ry     beta= 0.20
     Davidson diagonalization with overlap
     ethr =  5.76E-11,  avg # of iterations =  1.5

     negative rho (up, down):  1.606E-03 1.607E-03

     total cpu time spent up to now is     2576.4 secs

     total energy              =   -1895.39237644 Ry
     estimated scf accuracy    <       0.00000005 Ry

     total magnetization       =     0.00 Bohr mag/cell
     absolute magnetization    =     0.01 Bohr mag/cell

     iteration # 42     ecut=    90.00 Ry     beta= 0.20
     Davidson diagonalization with overlap
     ethr =  3.93E-11,  avg # of iterations =  2.0

     negative rho (up, down):  1.606E-03 1.607E-03

     total cpu time spent up to now is     2631.0 secs

     total energy              =   -1895.39237646 Ry
     estimated scf accuracy    <       0.00000004 Ry

     total magnetization       =     0.00 Bohr mag/cell
     absolute magnetization    =     0.01 Bohr mag/cell

     iteration # 43     ecut=    90.00 Ry     beta= 0.20
     Davidson diagonalization with overlap
     ethr =  3.37E-11,  avg # of iterations =  1.3

     negative rho (up, down):  1.606E-03 1.607E-03

     total cpu time spent up to now is     2681.7 secs

     total energy              =   -1895.39237646 Ry
     estimated scf accuracy    <       0.00000002 Ry

     total magnetization       =     0.00 Bohr mag/cell
     absolute magnetization    =     0.01 Bohr mag/cell

     iteration # 44     ecut=    90.00 Ry     beta= 0.20
     Davidson diagonalization with overlap
     ethr =  1.47E-11,  avg # of iterations =  2.4

     negative rho (up, down):  1.606E-03 1.607E-03

     total cpu time spent up to now is     2738.7 secs

     total energy              =   -1895.39237647 Ry
     estimated scf accuracy    <       0.00000003 Ry

     total magnetization       =     0.00 Bohr mag/cell
     absolute magnetization    =     0.01 Bohr mag/cell

     iteration # 45     ecut=    90.00 Ry     beta= 0.20
     Davidson diagonalization with overlap
     ethr =  1.47E-11,  avg # of iterations =  2.7

     negative rho (up, down):  1.606E-03 1.607E-03

     total cpu time spent up to now is     2796.1 secs

     total energy              =   -1895.39237647 Ry
     estimated scf accuracy    <       0.00000002 Ry

     total magnetization       =     0.00 Bohr mag/cell
     absolute magnetization    =     0.01 Bohr mag/cell

     iteration # 46     ecut=    90.00 Ry     beta= 0.20
     Davidson diagonalization with overlap
     ethr =  1.47E-11,  avg # of iterations =  1.3

     negative rho (up, down):  1.606E-03 1.607E-03

     total cpu time spent up to now is     2847.5 secs

     total energy              =   -1895.39237648 Ry
     estimated scf accuracy    <       0.00000001 Ry

     total magnetization       =     0.00 Bohr mag/cell
     absolute magnetization    =     0.01 Bohr mag/cell

     iteration # 47     ecut=    90.00 Ry     beta= 0.20
     Davidson diagonalization with overlap
     ethr =  9.00E-12,  avg # of iterations =  3.1

     negative rho (up, down):  1.606E-03 1.607E-03

     total cpu time spent up to now is     2906.5 secs

     total energy              =   -1895.39237648 Ry
     estimated scf accuracy    <       0.00000001 Ry

     total magnetization       =     0.00 Bohr mag/cell
     absolute magnetization    =     0.01 Bohr mag/cell

     iteration # 48     ecut=    90.00 Ry     beta= 0.20
     Davidson diagonalization with overlap
     ethr =  9.00E-12,  avg # of iterations =  1.2

     negative rho (up, down):  1.606E-03 1.607E-03

     total cpu time spent up to now is     2956.8 secs

     total energy              =   -1895.39237648 Ry
     estimated scf accuracy    <       0.00000001 Ry

     total magnetization       =     0.00 Bohr mag/cell
     absolute magnetization    =     0.01 Bohr mag/cell

     iteration # 49     ecut=    90.00 Ry     beta= 0.20
     Davidson diagonalization with overlap
     ethr =  9.00E-12,  avg # of iterations =  3.1

     negative rho (up, down):  1.606E-03 1.607E-03

     total cpu time spent up to now is     3016.4 secs

     total energy              =   -1895.39237649 Ry
     estimated scf accuracy    <       0.00000001 Ry

     total magnetization       =     0.00 Bohr mag/cell
     absolute magnetization    =     0.01 Bohr mag/cell

     iteration # 50     ecut=    90.00 Ry     beta= 0.20
     Davidson diagonalization with overlap
     ethr =  9.00E-12,  avg # of iterations =  4.1

     negative rho (up, down):  1.606E-03 1.607E-03

     total cpu time spent up to now is     3080.0 secs

     total energy              =   -1895.39237649 Ry
     estimated scf accuracy    <       0.00000001 Ry

     total magnetization       =     0.00 Bohr mag/cell
     absolute magnetization    =     0.01 Bohr mag/cell

     iteration # 51     ecut=    90.00 Ry     beta= 0.20
     Davidson diagonalization with overlap
     ethr =  9.00E-12,  avg # of iterations =  1.0

     negative rho (up, down):  1.606E-03 1.607E-03

     total cpu time spent up to now is     3129.2 secs

     total energy              =   -1895.39237649 Ry
     estimated scf accuracy    <       0.00000001 Ry

     total magnetization       =     0.00 Bohr mag/cell
     absolute magnetization    =     0.01 Bohr mag/cell

     iteration # 52     ecut=    90.00 Ry     beta= 0.20
     Davidson diagonalization with overlap
     ethr =  8.98E-12,  avg # of iterations =  1.0

     negative rho (up, down):  1.606E-03 1.607E-03

     total cpu time spent up to now is     3178.5 secs

     total energy              =   -1895.39237649 Ry
     estimated scf accuracy    <       0.00000001 Ry

     total magnetization       =     0.00 Bohr mag/cell
     absolute magnetization    =     0.01 Bohr mag/cell

     iteration # 53     ecut=    90.00 Ry     beta= 0.20
     Davidson diagonalization with overlap
     ethr =  8.98E-12,  avg # of iterations =  1.0

     negative rho (up, down):  1.606E-03 1.607E-03

     total cpu time spent up to now is     3227.7 secs

     total energy              =   -1895.39237649 Ry
     estimated scf accuracy    <       0.00000001 Ry

     total magnetization       =     0.00 Bohr mag/cell
     absolute magnetization    =     0.01 Bohr mag/cell

     iteration # 54     ecut=    90.00 Ry     beta= 0.20
     Davidson diagonalization with overlap
     ethr =  8.98E-12,  avg # of iterations =  1.0

     negative rho (up, down):  1.606E-03 1.607E-03

     total cpu time spent up to now is     3276.9 secs

     total energy              =   -1895.39237649 Ry
     estimated scf accuracy    <       0.00000001 Ry

     total magnetization       =     0.00 Bohr mag/cell
     absolute magnetization    =     0.01 Bohr mag/cell

     iteration # 55     ecut=    90.00 Ry     beta= 0.20
     Davidson diagonalization with overlap
     ethr =  8.98E-12,  avg # of iterations =  1.0

     negative rho (up, down):  1.606E-03 1.607E-03

     total cpu time spent up to now is     3326.1 secs

     total energy              =   -1895.39237649 Ry
     estimated scf accuracy    <       0.00000001 Ry

     total magnetization       =     0.00 Bohr mag/cell
     absolute magnetization    =     0.01 Bohr mag/cell

     iteration # 56     ecut=    90.00 Ry     beta= 0.20
     Davidson diagonalization with overlap
     ethr =  8.98E-12,  avg # of iterations =  1.0

     negative rho (up, down):  1.606E-03 1.607E-03

     total cpu time spent up to now is     3375.3 secs

     total energy              =   -1895.39237649 Ry
     estimated scf accuracy    <       0.00000002 Ry

     total magnetization       =     0.00 Bohr mag/cell
     absolute magnetization    =     0.01 Bohr mag/cell

     iteration # 57     ecut=    90.00 Ry     beta= 0.20
     Davidson diagonalization with overlap
     ethr =  8.98E-12,  avg # of iterations =  5.3

     negative rho (up, down):  1.606E-03 1.607E-03

     total cpu time spent up to now is     3452.3 secs

     total energy              =   -1895.39237650 Ry
     estimated scf accuracy    <       0.00000002 Ry

     total magnetization       =     0.00 Bohr mag/cell
     absolute magnetization    =     0.01 Bohr mag/cell

     iteration # 58     ecut=    90.00 Ry     beta= 0.20
     Davidson diagonalization with overlap
     ethr =  8.98E-12,  avg # of iterations =  1.4

     negative rho (up, down):  1.606E-03 1.607E-03

     total cpu time spent up to now is     3504.1 secs

     total energy              =   -1895.39237650 Ry
     estimated scf accuracy    <       0.00000003 Ry

     total magnetization       =     0.00 Bohr mag/cell
     absolute magnetization    =     0.01 Bohr mag/cell

     iteration # 59     ecut=    90.00 Ry     beta= 0.20
     Davidson diagonalization with overlap
     ethr =  8.98E-12,  avg # of iterations =  2.2

     negative rho (up, down):  1.606E-03 1.607E-03

     total cpu time spent up to now is     3560.1 secs

     total energy              =   -1895.39237650 Ry
     estimated scf accuracy    <       0.00000002 Ry

     total magnetization       =     0.00 Bohr mag/cell
     absolute magnetization    =     0.01 Bohr mag/cell

     iteration # 60     ecut=    90.00 Ry     beta= 0.20
     Davidson diagonalization with overlap
     ethr =  8.98E-12,  avg # of iterations =  1.0

     negative rho (up, down):  1.606E-03 1.607E-03

     total cpu time spent up to now is     3609.3 secs

     total energy              =   -1895.39237650 Ry
     estimated scf accuracy    <       0.00000003 Ry

     total magnetization       =     0.00 Bohr mag/cell
     absolute magnetization    =     0.01 Bohr mag/cell

     iteration # 61     ecut=    90.00 Ry     beta= 0.20
     Davidson diagonalization with overlap
     ethr =  8.98E-12,  avg # of iterations =  1.0

     negative rho (up, down):  1.606E-03 1.607E-03

     total cpu time spent up to now is     3658.7 secs

     total energy              =   -1895.39237650 Ry
     estimated scf accuracy    <       0.00000003 Ry

     total magnetization       =     0.00 Bohr mag/cell
     absolute magnetization    =     0.01 Bohr mag/cell

     iteration # 62     ecut=    90.00 Ry     beta= 0.20
     Davidson diagonalization with overlap
     ethr =  8.98E-12,  avg # of iterations =  1.0

     negative rho (up, down):  1.606E-03 1.607E-03

     total cpu time spent up to now is     3708.0 secs

     total energy              =   -1895.39237650 Ry
     estimated scf accuracy    <       0.00000003 Ry

     total magnetization       =     0.00 Bohr mag/cell
     absolute magnetization    =     0.01 Bohr mag/cell

     iteration # 63     ecut=    90.00 Ry     beta= 0.20
     Davidson diagonalization with overlap
     ethr =  8.98E-12,  avg # of iterations =  1.0

     negative rho (up, down):  1.606E-03 1.607E-03

     total cpu time spent up to now is     3757.4 secs

     total energy              =   -1895.39237650 Ry
     estimated scf accuracy    <       0.00000001 Ry

     total magnetization       =     0.00 Bohr mag/cell
     absolute magnetization    =     0.01 Bohr mag/cell

     iteration # 64     ecut=    90.00 Ry     beta= 0.20
     Davidson diagonalization with overlap
     ethr =  8.98E-12,  avg # of iterations =  1.0

     negative rho (up, down):  1.607E-03 1.607E-03

     total cpu time spent up to now is     3806.6 secs

     total energy              =   -1895.39237651 Ry
     estimated scf accuracy    <       0.00000001 Ry

     total magnetization       =     0.00 Bohr mag/cell
     absolute magnetization    =     0.01 Bohr mag/cell

     iteration # 65     ecut=    90.00 Ry     beta= 0.20
     Davidson diagonalization with overlap
     ethr =  8.98E-12,  avg # of iterations =  3.6

     negative rho (up, down):  1.607E-03 1.606E-03

     total cpu time spent up to now is     3869.1 secs

     total energy              =   -1895.39237651 Ry
     estimated scf accuracy    <       0.00000001 Ry

     total magnetization       =     0.00 Bohr mag/cell
     absolute magnetization    =     0.01 Bohr mag/cell

     iteration # 66     ecut=    90.00 Ry     beta= 0.20
     Davidson diagonalization with overlap
     ethr =  8.98E-12,  avg # of iterations =  1.0

     negative rho (up, down):  1.607E-03 1.607E-03

     total cpu time spent up to now is     3918.5 secs

     total energy              =   -1895.39237651 Ry
     estimated scf accuracy    <       0.00000001 Ry

     total magnetization       =    -0.00 Bohr mag/cell
     absolute magnetization    =     0.01 Bohr mag/cell

     iteration # 67     ecut=    90.00 Ry     beta= 0.20
     Davidson diagonalization with overlap
     ethr =  8.98E-12,  avg # of iterations =  1.0

     negative rho (up, down):  1.607E-03 1.606E-03

     total cpu time spent up to now is     3967.7 secs

     total energy              =   -1895.39237651 Ry
     estimated scf accuracy    <       0.00000001 Ry

     total magnetization       =     0.00 Bohr mag/cell
     absolute magnetization    =     0.01 Bohr mag/cell

     iteration # 68     ecut=    90.00 Ry     beta= 0.20
     Davidson diagonalization with overlap
     ethr =  8.98E-12,  avg # of iterations =  1.5

     negative rho (up, down):  1.607E-03 1.607E-03

     total cpu time spent up to now is     4020.4 secs

     total energy              =   -1895.39237651 Ry
     estimated scf accuracy    <       0.00000002 Ry

     total magnetization       =    -0.00 Bohr mag/cell
     absolute magnetization    =     0.01 Bohr mag/cell

     iteration # 69     ecut=    90.00 Ry     beta= 0.20
     Davidson diagonalization with overlap
     ethr =  8.98E-12,  avg # of iterations =  1.0

     negative rho (up, down):  1.607E-03 1.607E-03

     total cpu time spent up to now is     4069.7 secs

     total energy              =   -1895.39237651 Ry
     estimated scf accuracy    <       0.00000001 Ry

     total magnetization       =     0.00 Bohr mag/cell
     absolute magnetization    =     0.01 Bohr mag/cell

     iteration # 70     ecut=    90.00 Ry     beta= 0.20
     Davidson diagonalization with overlap
     ethr =  8.98E-12,  avg # of iterations =  1.0

     negative rho (up, down):  1.607E-03 1.607E-03

     total cpu time spent up to now is     4118.9 secs

     total energy              =   -1895.39237650 Ry
     estimated scf accuracy    <       0.00000001 Ry

     total magnetization       =     0.00 Bohr mag/cell
     absolute magnetization    =     0.01 Bohr mag/cell

     iteration # 71     ecut=    90.00 Ry     beta= 0.20
     Davidson diagonalization with overlap
     ethr =  8.98E-12,  avg # of iterations =  1.1

     negative rho (up, down):  1.607E-03 1.607E-03

     total cpu time spent up to now is     4168.8 secs

     total energy              =   -1895.39237651 Ry
     estimated scf accuracy    <       0.00000001 Ry

     total magnetization       =     0.00 Bohr mag/cell
     absolute magnetization    =     0.01 Bohr mag/cell

     iteration # 72     ecut=    90.00 Ry     beta= 0.20
     Davidson diagonalization with overlap
     ethr =  8.98E-12,  avg # of iterations =  1.0

     negative rho (up, down):  1.607E-03 1.606E-03

     total cpu time spent up to now is     4218.0 secs

     total energy              =   -1895.39237652 Ry
     estimated scf accuracy    <       0.00000001 Ry

     total magnetization       =     0.00 Bohr mag/cell
     absolute magnetization    =     0.01 Bohr mag/cell

     iteration # 73     ecut=    90.00 Ry     beta= 0.20
     Davidson diagonalization with overlap
     ethr =  8.98E-12,  avg # of iterations =  5.6

     negative rho (up, down):  1.607E-03 1.607E-03

     total cpu time spent up to now is     4296.6 secs

     total energy              =   -1895.39237653 Ry
     estimated scf accuracy    <       0.00000002 Ry

     total magnetization       =    -0.00 Bohr mag/cell
     absolute magnetization    =     0.02 Bohr mag/cell

     iteration # 74     ecut=    90.00 Ry     beta= 0.20
     Davidson diagonalization with overlap
     ethr =  8.98E-12,  avg # of iterations =  1.0

     negative rho (up, down):  1.607E-03 1.606E-03

     total cpu time spent up to now is     4345.8 secs

     total energy              =   -1895.39237652 Ry
     estimated scf accuracy    <       0.00000002 Ry

     total magnetization       =     0.00 Bohr mag/cell
     absolute magnetization    =     0.02 Bohr mag/cell

     iteration # 75     ecut=    90.00 Ry     beta= 0.20
     Davidson diagonalization with overlap
     ethr =  8.98E-12,  avg # of iterations =  2.2

     negative rho (up, down):  1.607E-03 1.607E-03

     total cpu time spent up to now is     4403.1 secs

     total energy              =   -1895.39237652 Ry
     estimated scf accuracy    <       0.00000002 Ry

     total magnetization       =    -0.00 Bohr mag/cell
     absolute magnetization    =     0.02 Bohr mag/cell

     iteration # 76     ecut=    90.00 Ry     beta= 0.20
     Davidson diagonalization with overlap
     ethr =  8.98E-12,  avg # of iterations =  1.1

     negative rho (up, down):  1.607E-03 1.606E-03

     total cpu time spent up to now is     4453.4 secs

     total energy              =   -1895.39237653 Ry
     estimated scf accuracy    <       0.00000002 Ry

     total magnetization       =     0.00 Bohr mag/cell
     absolute magnetization    =     0.02 Bohr mag/cell

     iteration # 77     ecut=    90.00 Ry     beta= 0.20
     Davidson diagonalization with overlap
     ethr =  8.98E-12,  avg # of iterations =  1.1

     negative rho (up, down):  1.607E-03 1.607E-03

     total cpu time spent up to now is     4503.0 secs

     total energy              =   -1895.39237651 Ry
     estimated scf accuracy    <       0.00000002 Ry

     total magnetization       =    -0.00 Bohr mag/cell
     absolute magnetization    =     0.02 Bohr mag/cell

     iteration # 78     ecut=    90.00 Ry     beta= 0.20
     Davidson diagonalization with overlap
     ethr =  8.98E-12,  avg # of iterations =  4.7

     negative rho (up, down):  1.606E-03 1.607E-03

     total cpu time spent up to now is     4570.2 secs

     total energy              =   -1895.39237649 Ry
     estimated scf accuracy    <       0.00000002 Ry

     total magnetization       =     0.00 Bohr mag/cell
     absolute magnetization    =     0.01 Bohr mag/cell

     iteration # 79     ecut=    90.00 Ry     beta= 0.20
     Davidson diagonalization with overlap
     ethr =  8.98E-12,  avg # of iterations =  5.3

     negative rho (up, down):  1.606E-03 1.607E-03

     total cpu time spent up to now is     4646.1 secs

     total energy              =   -1895.39237648 Ry
     estimated scf accuracy    <       0.00000002 Ry

     total magnetization       =     0.00 Bohr mag/cell
     absolute magnetization    =     0.01 Bohr mag/cell

     iteration # 80     ecut=    90.00 Ry     beta= 0.20
     Davidson diagonalization with overlap
     ethr =  8.98E-12,  avg # of iterations =  4.8

     negative rho (up, down):  1.606E-03 1.607E-03

     total cpu time spent up to now is     4716.9 secs

     total energy              =   -1895.39237649 Ry
     estimated scf accuracy    <       0.00000002 Ry

     total magnetization       =     0.00 Bohr mag/cell
     absolute magnetization    =     0.01 Bohr mag/cell

     iteration # 81     ecut=    90.00 Ry     beta= 0.20
     Davidson diagonalization with overlap
     ethr =  8.98E-12,  avg # of iterations =  1.1

     negative rho (up, down):  1.606E-03 1.607E-03

     total cpu time spent up to now is     4766.9 secs

     total energy              =   -1895.39237646 Ry
     estimated scf accuracy    <       0.00000001 Ry

     total magnetization       =     0.00 Bohr mag/cell
     absolute magnetization    =     0.01 Bohr mag/cell

     iteration # 82     ecut=    90.00 Ry     beta= 0.20
     Davidson diagonalization with overlap
     ethr =  8.98E-12,  avg # of iterations =  5.3

     negative rho (up, down):  1.606E-03 1.607E-03

     total cpu time spent up to now is     4842.1 secs

     total energy              =   -1895.39237642 Ry
     estimated scf accuracy    <       0.00000001 Ry

     total magnetization       =     0.00 Bohr mag/cell
     absolute magnetization    =     0.01 Bohr mag/cell

     iteration # 83     ecut=    90.00 Ry     beta= 0.20
     Davidson diagonalization with overlap
     ethr =  8.98E-12,  avg # of iterations =  6.0

     negative rho (up, down):  1.606E-03 1.607E-03

     total cpu time spent up to now is     4933.3 secs

     total energy              =   -1895.39237646 Ry
     estimated scf accuracy    <       0.00000001 Ry

     total magnetization       =     0.00 Bohr mag/cell
     absolute magnetization    =     0.01 Bohr mag/cell

     iteration # 84     ecut=    90.00 Ry     beta= 0.20
     Davidson diagonalization with overlap
     ethr =  8.98E-12,  avg # of iterations =  1.0

     negative rho (up, down):  1.606E-03 1.607E-03

     Magnetic moment per site:
     atom:    1    charge:   11.7673    magn:    0.0014    constr:    0.0000
     atom:    2    charge:   15.2965    magn:   -0.0004    constr:    0.0000
     atom:    3    charge:   11.7673    magn:   -0.0008    constr:    0.0000
     atom:    4    charge:   15.2966    magn:    0.0003    constr:    0.0000
     atom:    5    charge:   11.7674    magn:    0.0016    constr:    0.0000
     atom:    6    charge:   15.2965    magn:   -0.0009    constr:    0.0000
     atom:    7    charge:   11.7674    magn:   -0.0011    constr:    0.0000
     atom:    8    charge:   15.2965    magn:    0.0015    constr:    0.0000

     total cpu time spent up to now is     4982.5 secs

     End of self-consistent calculation

     Number of k-points >= 100: set verbosity='high' to print the bands.

     the Fermi energy is    17.2457 ev

!    total energy              =   -1895.39237646 Ry
     estimated scf accuracy    <          8.6E-09 Ry
     smearing contrib. (-TS)   =      -0.01120812 Ry
     internal energy E=F+TS    =   -1895.38116834 Ry

     The total energy is F=E-TS. E is the sum of the following terms:
     one-electron contribution =    -973.24374426 Ry
     hartree contribution      =     553.95439617 Ry
     xc contribution           =    -220.22161982 Ry
     ewald contribution        =   -1255.87020042 Ry

     total magnetization       =     0.00 Bohr mag/cell
     absolute magnetization    =     0.01 Bohr mag/cell

     convergence has been achieved in  84 iterations

     negative rho (up, down):  1.606E-03 1.607E-03

     Forces acting on atoms (cartesian axes, Ry/au):

     atom    1 type  1   force =     0.00033472   -0.00041167   -0.00014233
     atom    2 type  2   force =     0.00056087    0.00091605    0.00031506
     atom    3 type  1   force =     0.00033479   -0.00041134   -0.00014236
     atom    4 type  2   force =     0.00056079    0.00091618    0.00031514
     atom    5 type  1   force =    -0.00012472    0.00000527    0.00000372
     atom    6 type  2   force =    -0.00077084   -0.00051001   -0.00017640
     atom    7 type  1   force =    -0.00012482    0.00000528    0.00000357
     atom    8 type  2   force =    -0.00077078   -0.00050976   -0.00017640

     Total force =     0.002216     Total SCF correction =     0.000001


     Computing stress (Cartesian axis) and pressure


     negative rho (up, down):  1.606E-03 1.607E-03
          total   stress  (Ry/bohr**3)                   (kbar)     P=       -9.68
  -0.00007703   0.00000010   0.00000002          -11.33        0.01        0.00
   0.00000010  -0.00006029  -0.00000011            0.01       -8.87       -0.02
   0.00000002  -0.00000011  -0.00006018            0.00       -0.02       -8.85

     Energy error            =      3.7E-01
     Gradient error          =      9.2E-04

     number of scf cycles    =  11
     number of bfgs steps    =   5

     energy   old            =   -1895.7600135191 Ry
     energy   new            =   -1895.3923764607 Ry

     CASE: energy  _new > energy  _old

     new trust radius        =       0.0239770186 bohr
     new conv_thr            =       0.0000000100 Ry


ATOMIC_POSITIONS (angstrom)
Cr            0.6165627760        2.0294834948       -1.1833780849
Co            2.7380551650        0.3828491742        2.3300794828
Cr            0.4219955653       -0.4421988399        2.2299619678
Co            1.9117689786        2.7306378101        1.0459251634
Cr            1.7101887985        0.4333670910        0.0091235466
Co           -0.4120688605        1.8883091375        1.0914514866
Cr            2.7884173998        2.6463989830        3.3225580576
Co           -0.6250811147       -0.4181632696        0.0334423659



     Writing output data file ./pwscf.save/
     NEW-OLD atomic charge density approx. for the potential

     Check: negative core charge=   -0.000010

     negative rho (up, down):  1.965E-02 1.966E-02
     Generating pointlists ...
     new r_m :   0.2011 (alat units)  1.7620 (a.u.) for type    1

     total cpu time spent up to now is     5015.6 secs

     Self-consistent Calculation

     iteration #  1     ecut=    90.00 Ry     beta= 0.20
     Davidson diagonalization with overlap
     c_bands:  3 eigenvalues not converged
     c_bands:  5 eigenvalues not converged
     c_bands:  2 eigenvalues not converged
     c_bands:  3 eigenvalues not converged
     c_bands:  5 eigenvalues not converged
     c_bands:  4 eigenvalues not converged
     c_bands:  4 eigenvalues not converged
     c_bands:  1 eigenvalues not converged
     c_bands:  3 eigenvalues not converged
     c_bands:  4 eigenvalues not converged
     c_bands:  5 eigenvalues not converged
     c_bands:  4 eigenvalues not converged
     c_bands:  5 eigenvalues not converged
     c_bands:  3 eigenvalues not converged
     c_bands:  1 eigenvalues not converged
     c_bands:  2 eigenvalues not converged
     c_bands:  3 eigenvalues not converged
     c_bands:  2 eigenvalues not converged
     c_bands:  2 eigenvalues not converged
     c_bands:  5 eigenvalues not converged
     c_bands:  3 eigenvalues not converged
     c_bands:  2 eigenvalues not converged
     c_bands:  5 eigenvalues not converged
     c_bands:  5 eigenvalues not converged
     c_bands:  4 eigenvalues not converged
     ethr =  1.00E-06,  avg # of iterations = 26.7

     negative rho (up, down):  8.290E-03 8.291E-03

     total cpu time spent up to now is     5541.8 secs

     total energy              =   -1892.70075859 Ry
     estimated scf accuracy    <       9.81411527 Ry

     total magnetization       =     0.00 Bohr mag/cell
     absolute magnetization    =     0.01 Bohr mag/cell

     iteration #  2     ecut=    90.00 Ry     beta= 0.20
     Davidson diagonalization with overlap
     ethr =  7.91E-03,  avg # of iterations =  4.0

     negative rho (up, down):  6.863E-03 6.865E-03

     total cpu time spent up to now is     5615.9 secs

     total energy              =   -1895.04688112 Ry
     estimated scf accuracy    <      34.55661051 Ry

     total magnetization       =     0.00 Bohr mag/cell
     absolute magnetization    =     0.01 Bohr mag/cell

     iteration #  3     ecut=    90.00 Ry     beta= 0.20
     Davidson diagonalization with overlap
     ethr =  7.91E-03,  avg # of iterations =  1.1

     negative rho (up, down):  6.271E-03 6.273E-03

     total cpu time spent up to now is     5666.5 secs

     total energy              =   -1895.74874773 Ry
     estimated scf accuracy    <       7.78153578 Ry

     total magnetization       =     0.00 Bohr mag/cell
     absolute magnetization    =     0.01 Bohr mag/cell

     iteration #  4     ecut=    90.00 Ry     beta= 0.20
     Davidson diagonalization with overlap
     ethr =  6.28E-03,  avg # of iterations =  1.0

     negative rho (up, down):  5.531E-03 5.532E-03

     total cpu time spent up to now is     5716.0 secs

     total energy              =   -1895.70264595 Ry
     estimated scf accuracy    <       4.80105664 Ry

     total magnetization       =     0.00 Bohr mag/cell
     absolute magnetization    =     0.01 Bohr mag/cell

     iteration #  5     ecut=    90.00 Ry     beta= 0.20
     Davidson diagonalization with overlap
     ethr =  3.87E-03,  avg # of iterations =  1.0

     negative rho (up, down):  2.496E-03 2.497E-03

     total cpu time spent up to now is     5765.5 secs

     total energy              =   -1895.36350625 Ry
     estimated scf accuracy    <       2.58054859 Ry

     total magnetization       =     0.00 Bohr mag/cell
     absolute magnetization    =     0.01 Bohr mag/cell

     iteration #  6     ecut=    90.00 Ry     beta= 0.20
     Davidson diagonalization with overlap
     ethr =  2.08E-03,  avg # of iterations =  2.1

     negative rho (up, down):  2.003E-03 2.004E-03

     total cpu time spent up to now is     5823.9 secs

     total energy              =   -1896.15990606 Ry
     estimated scf accuracy    <      11.53299114 Ry

     total magnetization       =     0.00 Bohr mag/cell
     absolute magnetization    =     0.01 Bohr mag/cell

     iteration #  7     ecut=    90.00 Ry     beta= 0.20
     Davidson diagonalization with overlap
     ethr =  2.08E-03,  avg # of iterations =  1.2

     negative rho (up, down):  1.890E-03 1.891E-03

     total cpu time spent up to now is     5874.8 secs

     total energy              =   -1895.80280727 Ry
     estimated scf accuracy    <      24.57481822 Ry

     total magnetization       =     0.00 Bohr mag/cell
     absolute magnetization    =     0.01 Bohr mag/cell

     iteration #  8     ecut=    90.00 Ry     beta= 0.20
     Davidson diagonalization with overlap
     ethr =  2.08E-03,  avg # of iterations =  1.0

     negative rho (up, down):  1.776E-03 1.777E-03

     total cpu time spent up to now is     5924.6 secs

     total energy              =   -1895.51331854 Ry
     estimated scf accuracy    <       8.94532150 Ry

     total magnetization       =     0.00 Bohr mag/cell
     absolute magnetization    =     0.01 Bohr mag/cell

     iteration #  9     ecut=    90.00 Ry     beta= 0.20
     Davidson diagonalization with overlap
     ethr =  2.08E-03,  avg # of iterations =  1.0

     negative rho (up, down):  1.761E-03 1.762E-03

     total cpu time spent up to now is     5974.4 secs

     total energy              =   -1895.68299813 Ry
     estimated scf accuracy    <       0.71726560 Ry

     total magnetization       =     0.00 Bohr mag/cell
     absolute magnetization    =     0.01 Bohr mag/cell

     iteration # 10     ecut=    90.00 Ry     beta= 0.20
     Davidson diagonalization with overlap
     ethr =  5.78E-04,  avg # of iterations =  1.1

     negative rho (up, down):  1.784E-03 1.785E-03

     total cpu time spent up to now is     6024.6 secs

     total energy              =   -1895.73338820 Ry
     estimated scf accuracy    <       0.02559166 Ry

     total magnetization       =     0.00 Bohr mag/cell
     absolute magnetization    =     0.01 Bohr mag/cell

     iteration # 11     ecut=    90.00 Ry     beta= 0.20
     Davidson diagonalization with overlap
     ethr =  2.06E-05,  avg # of iterations =  6.6

     negative rho (up, down):  1.766E-03 1.767E-03

     total cpu time spent up to now is     6116.9 secs

     total energy              =   -1895.74834162 Ry
     estimated scf accuracy    <       0.31684673 Ry

     total magnetization       =     0.00 Bohr mag/cell
     absolute magnetization    =     0.01 Bohr mag/cell

     iteration # 12     ecut=    90.00 Ry     beta= 0.20
     Davidson diagonalization with overlap
     ethr =  2.06E-05,  avg # of iterations =  1.8

     negative rho (up, down):  1.788E-03 1.789E-03

     total cpu time spent up to now is     6172.6 secs

     total energy              =   -1895.74040564 Ry
     estimated scf accuracy    <       0.43142317 Ry

     total magnetization       =     0.00 Bohr mag/cell
     absolute magnetization    =     0.01 Bohr mag/cell

     iteration # 13     ecut=    90.00 Ry     beta= 0.20
     Davidson diagonalization with overlap
     ethr =  2.06E-05,  avg # of iterations =  2.0

     negative rho (up, down):  1.798E-03 1.798E-03

     total cpu time spent up to now is     6231.7 secs

     total energy              =   -1895.75000155 Ry
     estimated scf accuracy    <       0.02324926 Ry

     total magnetization       =     0.00 Bohr mag/cell
     absolute magnetization    =     0.01 Bohr mag/cell

     iteration # 14     ecut=    90.00 Ry     beta= 0.20
     Davidson diagonalization with overlap
     ethr =  1.87E-05,  avg # of iterations =  1.0

     negative rho (up, down):  1.801E-03 1.801E-03

     total cpu time spent up to now is     6281.5 secs

     total energy              =   -1895.75092492 Ry
     estimated scf accuracy    <       0.01393766 Ry

     total magnetization       =     0.00 Bohr mag/cell
     absolute magnetization    =     0.01 Bohr mag/cell

     iteration # 15     ecut=    90.00 Ry     beta= 0.20
     Davidson diagonalization with overlap
     ethr =  1.12E-05,  avg # of iterations =  1.0

     negative rho (up, down):  1.810E-03 1.810E-03

     total cpu time spent up to now is     6331.7 secs

     total energy              =   -1895.75165759 Ry
     estimated scf accuracy    <       0.00466053 Ry

     total magnetization       =     0.00 Bohr mag/cell
     absolute magnetization    =     0.01 Bohr mag/cell

     iteration # 16     ecut=    90.00 Ry     beta= 0.20
     Davidson diagonalization with overlap
     ethr =  3.76E-06,  avg # of iterations =  1.8

     negative rho (up, down):  1.811E-03 1.811E-03

     total cpu time spent up to now is     6386.1 secs

     total energy              =   -1895.75185391 Ry
     estimated scf accuracy    <       0.00175641 Ry

     total magnetization       =     0.00 Bohr mag/cell
     absolute magnetization    =     0.01 Bohr mag/cell

     iteration # 17     ecut=    90.00 Ry     beta= 0.20
     Davidson diagonalization with overlap
     ethr =  1.42E-06,  avg # of iterations =  2.1

     negative rho (up, down):  1.812E-03 1.813E-03

     total cpu time spent up to now is     6443.1 secs

     total energy              =   -1895.75194319 Ry
     estimated scf accuracy    <       0.00196967 Ry

     total magnetization       =     0.00 Bohr mag/cell
     absolute magnetization    =     0.01 Bohr mag/cell

     iteration # 18     ecut=    90.00 Ry     beta= 0.20
     Davidson diagonalization with overlap
     ethr =  1.42E-06,  avg # of iterations =  1.0

     negative rho (up, down):  1.812E-03 1.813E-03

     total cpu time spent up to now is     6493.0 secs

     total energy              =   -1895.75200460 Ry
     estimated scf accuracy    <       0.00031059 Ry

     total magnetization       =     0.00 Bohr mag/cell
     absolute magnetization    =     0.01 Bohr mag/cell

     iteration # 19     ecut=    90.00 Ry     beta= 0.20
     Davidson diagonalization with overlap
     ethr =  2.50E-07,  avg # of iterations =  2.5

     negative rho (up, down):  1.812E-03 1.812E-03

     total cpu time spent up to now is     6552.0 secs

     total energy              =   -1895.75201303 Ry
     estimated scf accuracy    <       0.00016292 Ry

     total magnetization       =     0.00 Bohr mag/cell
     absolute magnetization    =     0.01 Bohr mag/cell

     iteration # 20     ecut=    90.00 Ry     beta= 0.20
     Davidson diagonalization with overlap
     ethr =  1.31E-07,  avg # of iterations =  2.5

     negative rho (up, down):  1.812E-03 1.812E-03

     total cpu time spent up to now is     6610.5 secs

     total energy              =   -1895.75202568 Ry
     estimated scf accuracy    <       0.00013819 Ry

     total magnetization       =     0.00 Bohr mag/cell
     absolute magnetization    =     0.01 Bohr mag/cell

     iteration # 21     ecut=    90.00 Ry     beta= 0.20
     Davidson diagonalization with overlap
     ethr =  1.11E-07,  avg # of iterations =  1.0

     negative rho (up, down):  1.812E-03 1.812E-03

     total cpu time spent up to now is     6660.3 secs

     total energy              =   -1895.75202911 Ry
     estimated scf accuracy    <       0.00001716 Ry

     total magnetization       =     0.00 Bohr mag/cell
     absolute magnetization    =     0.01 Bohr mag/cell

     iteration # 22     ecut=    90.00 Ry     beta= 0.20
     Davidson diagonalization with overlap
     ethr =  1.38E-08,  avg # of iterations =  4.4

     negative rho (up, down):  1.813E-03 1.812E-03

     total cpu time spent up to now is     6725.3 secs

     total energy              =   -1895.75203070 Ry
     estimated scf accuracy    <       0.00000542 Ry

     total magnetization       =     0.00 Bohr mag/cell
     absolute magnetization    =     0.01 Bohr mag/cell

     iteration # 23     ecut=    90.00 Ry     beta= 0.20
     Davidson diagonalization with overlap
     ethr =  4.37E-09,  avg # of iterations =  1.8

     negative rho (up, down):  1.813E-03 1.813E-03

     total cpu time spent up to now is     6779.7 secs

     total energy              =   -1895.75203135 Ry
     estimated scf accuracy    <       0.00000199 Ry

     total magnetization       =     0.00 Bohr mag/cell
     absolute magnetization    =     0.01 Bohr mag/cell

     iteration # 24     ecut=    90.00 Ry     beta= 0.20
     Davidson diagonalization with overlap
     ethr =  1.60E-09,  avg # of iterations =  2.3

     negative rho (up, down):  1.813E-03 1.813E-03

     total cpu time spent up to now is     6837.4 secs

     total energy              =   -1895.75203139 Ry
     estimated scf accuracy    <       0.00000200 Ry

     total magnetization       =     0.00 Bohr mag/cell
     absolute magnetization    =     0.01 Bohr mag/cell

     iteration # 25     ecut=    90.00 Ry     beta= 0.20
     Davidson diagonalization with overlap
     ethr =  1.60E-09,  avg # of iterations =  1.0

     negative rho (up, down):  1.813E-03 1.813E-03

     total cpu time spent up to now is     6887.3 secs

     total energy              =   -1895.75203143 Ry
     estimated scf accuracy    <       0.00000029 Ry

     total magnetization       =     0.00 Bohr mag/cell
     absolute magnetization    =     0.01 Bohr mag/cell

     iteration # 26     ecut=    90.00 Ry     beta= 0.20
     Davidson diagonalization with overlap
     ethr =  2.38E-10,  avg # of iterations =  4.6

     negative rho (up, down):  1.813E-03 1.813E-03

     total cpu time spent up to now is     6958.4 secs

     total energy              =   -1895.75203140 Ry
     estimated scf accuracy    <       0.00000245 Ry

     total magnetization       =     0.00 Bohr mag/cell
     absolute magnetization    =     0.01 Bohr mag/cell

     iteration # 27     ecut=    90.00 Ry     beta= 0.20
     Davidson diagonalization with overlap
     ethr =  2.38E-10,  avg # of iterations =  2.3

     negative rho (up, down):  1.813E-03 1.813E-03

     total cpu time spent up to now is     7016.7 secs

     total energy              =   -1895.75203148 Ry
     estimated scf accuracy    <       0.00000034 Ry

     total magnetization       =     0.00 Bohr mag/cell
     absolute magnetization    =     0.01 Bohr mag/cell

     iteration # 28     ecut=    90.00 Ry     beta= 0.20
     Davidson diagonalization with overlap
     ethr =  2.38E-10,  avg # of iterations =  1.0

     negative rho (up, down):  1.813E-03 1.813E-03

     total cpu time spent up to now is     7066.6 secs

     total energy              =   -1895.75203151 Ry
     estimated scf accuracy    <       0.00000024 Ry

     total magnetization       =     0.00 Bohr mag/cell
     absolute magnetization    =     0.01 Bohr mag/cell

     iteration # 29     ecut=    90.00 Ry     beta= 0.20
     Davidson diagonalization with overlap
     ethr =  1.91E-10,  avg # of iterations =  1.1

     negative rho (up, down):  1.813E-03 1.813E-03

     total cpu time spent up to now is     7117.3 secs

     total energy              =   -1895.75203152 Ry
     estimated scf accuracy    <       0.00000003 Ry

     total magnetization       =     0.00 Bohr mag/cell
     absolute magnetization    =     0.01 Bohr mag/cell

     iteration # 30     ecut=    90.00 Ry     beta= 0.20
     Davidson diagonalization with overlap
     ethr =  2.40E-11,  avg # of iterations =  3.2

     negative rho (up, down):  1.813E-03 1.813E-03

     total cpu time spent up to now is     7178.3 secs

     total energy              =   -1895.75203152 Ry
     estimated scf accuracy    <       0.00000002 Ry

     total magnetization       =     0.00 Bohr mag/cell
     absolute magnetization    =     0.01 Bohr mag/cell

     iteration # 31     ecut=    90.00 Ry     beta= 0.20
     Davidson diagonalization with overlap
     ethr =  1.51E-11,  avg # of iterations =  2.0

     negative rho (up, down):  1.813E-03 1.813E-03

     total cpu time spent up to now is     7235.0 secs

     total energy              =   -1895.75203152 Ry
     estimated scf accuracy    <       0.00000006 Ry

     total magnetization       =     0.00 Bohr mag/cell
     absolute magnetization    =     0.01 Bohr mag/cell

     iteration # 32     ecut=    90.00 Ry     beta= 0.20
     Davidson diagonalization with overlap
     ethr =  1.51E-11,  avg # of iterations =  1.3

     negative rho (up, down):  1.813E-03 1.813E-03

     total cpu time spent up to now is     7287.3 secs

     total energy              =   -1895.75203153 Ry
     estimated scf accuracy    <       0.00000004 Ry

     total magnetization       =     0.00 Bohr mag/cell
     absolute magnetization    =     0.01 Bohr mag/cell

     iteration # 33     ecut=    90.00 Ry     beta= 0.20
     Davidson diagonalization with overlap
     ethr =  1.51E-11,  avg # of iterations =  1.0

     negative rho (up, down):  1.813E-03 1.813E-03

     total cpu time spent up to now is     7337.2 secs

     total energy              =   -1895.75203153 Ry
     estimated scf accuracy    <       0.00000001 Ry

     total magnetization       =     0.00 Bohr mag/cell
     absolute magnetization    =     0.01 Bohr mag/cell

     iteration # 34     ecut=    90.00 Ry     beta= 0.20
     Davidson diagonalization with overlap
     ethr =  8.48E-12,  avg # of iterations =  1.0

     negative rho (up, down):  1.813E-03 1.812E-03

     Magnetic moment per site:
     atom:    1    charge:   11.6817    magn:    0.0002    constr:    0.0000
     atom:    2    charge:   15.1493    magn:    0.0001    constr:    0.0000
     atom:    3    charge:   11.5980    magn:   -0.0011    constr:    0.0000
     atom:    4    charge:   15.1639    magn:   -0.0004    constr:    0.0000
     atom:    5    charge:   11.6151    magn:    0.0009    constr:    0.0000
     atom:    6    charge:   15.1279    magn:    0.0019    constr:    0.0000
     atom:    7    charge:   11.6396    magn:   -0.0007    constr:    0.0000
     atom:    8    charge:   15.1479    magn:    0.0012    constr:    0.0000

     total cpu time spent up to now is     7387.0 secs

     End of self-consistent calculation

     Number of k-points >= 100: set verbosity='high' to print the bands.

     the Fermi energy is    16.8433 ev

!    total energy              =   -1895.75203153 Ry
     estimated scf accuracy    <          6.6E-09 Ry
     smearing contrib. (-TS)   =      -0.00818235 Ry
     internal energy E=F+TS    =   -1895.74384918 Ry

     The total energy is F=E-TS. E is the sum of the following terms:
     one-electron contribution =    -948.43574281 Ry
     hartree contribution      =     541.17042573 Ry
     xc contribution           =    -219.72644999 Ry
     ewald contribution        =   -1268.75208211 Ry

     total magnetization       =     0.00 Bohr mag/cell
     absolute magnetization    =     0.01 Bohr mag/cell

     convergence has been achieved in  34 iterations

     negative rho (up, down):  1.813E-03 1.812E-03

     Forces acting on atoms (cartesian axes, Ry/au):

     atom    1 type  1   force =     0.00259523    0.00051930   -0.00144776
     atom    2 type  2   force =     0.00262138    0.00036912   -0.00156203
     atom    3 type  1   force =    -0.00025211   -0.00405135    0.00164084
     atom    4 type  2   force =     0.00162520    0.00436487    0.00125576
     atom    5 type  1   force =    -0.00553604   -0.00105828   -0.00005970
     atom    6 type  2   force =     0.00368027   -0.00140797    0.00037060
     atom    7 type  1   force =     0.00043588    0.00124766    0.00182243
     atom    8 type  2   force =    -0.00516982    0.00001666   -0.00202013

     Total force =     0.012012     Total SCF correction =     0.000199


     Computing stress (Cartesian axis) and pressure


     negative rho (up, down):  1.813E-03 1.812E-03
          total   stress  (Ry/bohr**3)                   (kbar)     P=     -185.23
  -0.00104886   0.00004195   0.00000087         -154.29        6.17        0.13
   0.00004195  -0.00145938  -0.00008419            6.17     -214.68      -12.38
   0.00000087  -0.00008419  -0.00126933            0.13      -12.38     -186.73

     Energy error            =      8.2E-03
     Gradient error          =      5.5E-03

     number of scf cycles    =  14
     number of bfgs steps    =   6

     energy   old            =   -1895.7601904355 Ry
     energy   new            =   -1895.7520315290 Ry

     CASE: energy  _new > energy  _old


 %%%%%%%%%%%%%%%%%%%%%%%%%%%%%%%%%%%%%%%%%%%%%%%%%%%%%%%%%%%%%%%%%%%%%%%%%%%%%%
     Error in routine bfgs (1):
     dE0s is positive which should never happen
 %%%%%%%%%%%%%%%%%%%%%%%%%%%%%%%%%%%%%%%%%%%%%%%%%%%%%%%%%%%%%%%%%%%%%%%%%%%%%%

     stopping ...
Abort(1) on node 0 (rank 0 in comm 0): application called MPI_Abort(MPI_COMM_WORLD, 1) - process 0
