
     Program PWSCF v.6.7MaX starts on 22Mar2022 at 10:47:30 

     This program is part of the open-source Quantum ESPRESSO suite
     for quantum simulation of materials; please cite
         "P. Giannozzi et al., J. Phys.:Condens. Matter 21 395502 (2009);
         "P. Giannozzi et al., J. Phys.:Condens. Matter 29 465901 (2017);
          URL http://www.quantum-espresso.org", 
     in publications or presentations arising from this work. More details at
     http://www.quantum-espresso.org/quote

     Parallel version (MPI), running on    24 processors

     MPI processes distributed on     1 nodes
     R & G space division:  proc/nbgrp/npool/nimage =      24
     Reading input from /home/kevin/QE_CoCrFeMnNi/CoCrFeMnNi/Opt/binary/Opt-B1-CoCr/Mix/elastic/Chg_6-B1-CoCr.in

     Current dimensions of program PWSCF are:
     Max number of different atomic species (ntypx) = 10
     Max number of k-points (npk) =  40000
     Max angular momentum in pseudopotentials (lmaxx) =  3

     Subspace diagonalization in iterative solution of the eigenvalue problem:
     a serial algorithm will be used

     Found symmetry operation: I + ( -0.0000 -0.5000 -0.5000)
     This is a supercell, fractional translations are disabled

     Parallelization info
     --------------------
     sticks:   dense  smooth     PW     G-vecs:    dense   smooth      PW
     Min         272      91     25                16558     3189     481
     Max         273      92     27                16561     3193     483
     Sum        6537    2185    613               397439    76581   11553



     bravais-lattice index     =            0
     lattice parameter (alat)  =       8.7200  a.u.
     unit-cell volume          =     663.0440 (a.u.)^3
     number of atoms/cell      =            8
     number of atomic types    =            2
     number of electrons       =       124.00
     number of Kohn-Sham states=           74
     kinetic-energy cutoff     =      90.0000  Ry
     charge density cutoff     =    1080.0000  Ry
     scf convergence threshold =      1.0E-08
     mixing beta               =       0.2000
     number of iterations used =            8  plain     mixing
     energy convergence thresh.=      1.0E-05
     force convergence thresh. =      1.0E-04
     Exchange-correlation= SLA  PW   PBE  PBE
                           (   1   4   3   4   0   0   0)
     nstep                     =          100


     celldm(1)=   8.719952  celldm(2)=   0.000000  celldm(3)=   0.000000
     celldm(4)=   0.000000  celldm(5)=   0.000000  celldm(6)=   0.000000

     crystal axes: (cart. coord. in units of alat)
               a(1) = (   1.000000   0.000000   0.000000 )  
               a(2) = (   0.005000   1.000000   0.000000 )  
               a(3) = (   0.000000   0.000000   1.000000 )  

     reciprocal axes: (cart. coord. in units 2 pi/alat)
               b(1) = (  1.000000 -0.005000  0.000000 )  
               b(2) = (  0.000000  1.000000  0.000000 )  
               b(3) = (  0.000000  0.000000  1.000000 )  


     PseudoPot. # 1 for Cr read from file:
     /opt/QEpot/SSSP_efficiency_pseudos/cr_pbe_v1.5.uspp.F.UPF
     MD5 check sum: 0d52af634a40206e4dee301ad30da4bf
     Pseudo is Ultrasoft + core correction, Zval = 14.0
     Generated by new atomic code, or converted to UPF format
     Using radial grid of  857 points,  6 beta functions with: 
                l(1) =   0
                l(2) =   0
                l(3) =   1
                l(4) =   1
                l(5) =   2
                l(6) =   2
     Q(r) pseudized with  8 coefficients,  rinner =    0.950   0.950   0.950
                                                       0.950   0.950

     PseudoPot. # 2 for Co read from file:
     /opt/QEpot/SSSP_efficiency_pseudos/Co_pbe_v1.2.uspp.F.UPF
     MD5 check sum: 5f91765df6ddd3222702df6e7b74a16d
     Pseudo is Ultrasoft + core correction, Zval = 17.0
     Generated by new atomic code, or converted to UPF format
     Using radial grid of  863 points,  6 beta functions with: 
                l(1) =   0
                l(2) =   0
                l(3) =   1
                l(4) =   1
                l(5) =   2
                l(6) =   2
     Q(r) pseudized with  8 coefficients,  rinner =    1.200   1.200   1.200
                                                       1.200   1.200

     atomic species   valence    mass     pseudopotential
        Cr            14.00    51.99610     Cr( 1.00)
        Co            17.00    58.93300     Co( 1.00)

     Starting magnetic structure 
     atomic species   magnetization
        Cr           0.000
        Co           0.000

     No symmetry found



   Cartesian axes

     site n.     atom                  positions (alat units)
         1           Cr  tau(   1) = (   0.0036356   0.4993776  -0.0007158  )
         2           Co  tau(   2) = (   0.5012515  -0.0007388   0.4994418  )
         3           Cr  tau(   3) = (   0.0011355  -0.0006224   0.4992842  )
         4           Co  tau(   4) = (   0.5037515   0.4992612  -0.0005581  )
         5           Cr  tau(   5) = (   0.4999886  -0.0013361   0.0003134  )
         6           Co  tau(   6) = (   0.0033745   0.4993988   0.4992485  )
         7           Cr  tau(   7) = (   0.5024887   0.4986639   0.5003134  )
         8           Co  tau(   8) = (   0.0008744  -0.0006012  -0.0007515  )

     number of k points=   112  Gaussian smearing, width (Ry)=  0.0100

     Number of k-points >= 100: set verbosity='high' to print them.

     Dense  grid:   397439 G-vectors     FFT dimensions: (  96,  96,  96)

     Smooth grid:    76581 G-vectors     FFT dimensions: (  54,  54,  54)

     Estimated max dynamical RAM per process >     174.71 MB

     Estimated total dynamical RAM >       4.09 GB

     Check: negative core charge=   -0.000010
     Generating pointlists ...
     new r_m :   0.2059 (alat units)  1.7953 (a.u.) for type    1
     new r_m :   0.2059 (alat units)  1.7953 (a.u.) for type    2

     Initial potential from superposition of free atoms

     starting charge  115.99991, renormalised to  124.00000

     negative rho (up, down):  1.649E-03 1.649E-03
     Starting wfcs are   92 randomized atomic wfcs

     total cpu time spent up to now is       20.6 secs

     Self-consistent Calculation

     iteration #  1     ecut=    90.00 Ry     beta= 0.20
     Davidson diagonalization with overlap
     ethr =  1.00E-02,  avg # of iterations =  3.0

     negative rho (up, down):  1.144E-03 1.144E-03

     total cpu time spent up to now is       85.0 secs

     total energy              =   -1872.67936733 Ry
     estimated scf accuracy    <     112.09018997 Ry

     total magnetization       =    -0.00 Bohr mag/cell
     absolute magnetization    =     0.01 Bohr mag/cell

     iteration #  2     ecut=    90.00 Ry     beta= 0.20
     Davidson diagonalization with overlap
     ethr =  1.00E-02,  avg # of iterations =  5.2

     negative rho (up, down):  1.789E-03 1.789E-03

     total cpu time spent up to now is      161.6 secs

     total energy              =   -1895.32317108 Ry
     estimated scf accuracy    <      61.54850353 Ry

     total magnetization       =    -0.00 Bohr mag/cell
     absolute magnetization    =     0.01 Bohr mag/cell

     iteration #  3     ecut=    90.00 Ry     beta= 0.20
     Davidson diagonalization with overlap
     ethr =  1.00E-02,  avg # of iterations =  2.7

     negative rho (up, down):  5.169E-03 5.171E-03

     total cpu time spent up to now is      210.4 secs

     total energy              =   -1886.43938220 Ry
     estimated scf accuracy    <      19.99708115 Ry

     total magnetization       =     0.00 Bohr mag/cell
     absolute magnetization    =     0.01 Bohr mag/cell

     iteration #  4     ecut=    90.00 Ry     beta= 0.20
     Davidson diagonalization with overlap
     ethr =  1.00E-02,  avg # of iterations =  5.5

     negative rho (up, down):  1.791E-03 1.792E-03

     total cpu time spent up to now is      289.1 secs

     total energy              =   -1882.81016781 Ry
     estimated scf accuracy    <     183.96889207 Ry

     total magnetization       =     0.01 Bohr mag/cell
     absolute magnetization    =     0.03 Bohr mag/cell

     iteration #  5     ecut=    90.00 Ry     beta= 0.20
     Davidson diagonalization with overlap
     ethr =  1.00E-02,  avg # of iterations =  5.6

     negative rho (up, down):  1.788E-03 1.789E-03

     total cpu time spent up to now is      360.0 secs

     total energy              =   -1895.37964872 Ry
     estimated scf accuracy    <       6.20027569 Ry

     total magnetization       =     0.01 Bohr mag/cell
     absolute magnetization    =     0.03 Bohr mag/cell

     iteration #  6     ecut=    90.00 Ry     beta= 0.20
     Davidson diagonalization with overlap
     ethr =  5.00E-03,  avg # of iterations =  1.3

     negative rho (up, down):  1.767E-03 1.766E-03

     total cpu time spent up to now is      398.6 secs

     total energy              =   -1895.41233060 Ry
     estimated scf accuracy    <       2.55966543 Ry

     total magnetization       =    -0.02 Bohr mag/cell
     absolute magnetization    =     0.03 Bohr mag/cell

     iteration #  7     ecut=    90.00 Ry     beta= 0.20
     Davidson diagonalization with overlap
     ethr =  2.06E-03,  avg # of iterations =  1.6

     negative rho (up, down):  1.701E-03 1.696E-03

     total cpu time spent up to now is      437.8 secs

     total energy              =   -1895.25263253 Ry
     estimated scf accuracy    <       1.95498832 Ry

     total magnetization       =    -0.03 Bohr mag/cell
     absolute magnetization    =     0.04 Bohr mag/cell

     iteration #  8     ecut=    90.00 Ry     beta= 0.20
     Davidson diagonalization with overlap
     ethr =  1.58E-03,  avg # of iterations =  1.9

     negative rho (up, down):  1.676E-03 1.670E-03

     total cpu time spent up to now is      479.6 secs

     total energy              =   -1895.36578004 Ry
     estimated scf accuracy    <       0.03442910 Ry

     total magnetization       =    -0.01 Bohr mag/cell
     absolute magnetization    =     0.02 Bohr mag/cell

     iteration #  9     ecut=    90.00 Ry     beta= 0.20
     Davidson diagonalization with overlap
     ethr =  2.78E-05,  avg # of iterations =  7.1

     negative rho (up, down):  1.635E-03 1.629E-03

     total cpu time spent up to now is      553.7 secs

     total energy              =   -1895.38573704 Ry
     estimated scf accuracy    <       0.01974803 Ry

     total magnetization       =    -0.02 Bohr mag/cell
     absolute magnetization    =     0.03 Bohr mag/cell

     iteration # 10     ecut=    90.00 Ry     beta= 0.20
     Davidson diagonalization with overlap
     ethr =  1.59E-05,  avg # of iterations =  6.1

     negative rho (up, down):  1.607E-03 1.600E-03

     total cpu time spent up to now is      630.1 secs

     total energy              =   -1895.42732125 Ry
     estimated scf accuracy    <       0.78426153 Ry

     total magnetization       =    -0.02 Bohr mag/cell
     absolute magnetization    =     0.02 Bohr mag/cell

     iteration # 11     ecut=    90.00 Ry     beta= 0.20
     Davidson diagonalization with overlap
     ethr =  1.59E-05,  avg # of iterations =  1.1

     negative rho (up, down):  1.607E-03 1.598E-03

     total cpu time spent up to now is      667.7 secs

     total energy              =   -1895.32439454 Ry
     estimated scf accuracy    <       0.66467613 Ry

     total magnetization       =    -0.02 Bohr mag/cell
     absolute magnetization    =     0.02 Bohr mag/cell

     iteration # 12     ecut=    90.00 Ry     beta= 0.20
     Davidson diagonalization with overlap
     ethr =  1.59E-05,  avg # of iterations =  6.4

     negative rho (up, down):  1.598E-03 1.587E-03

     total cpu time spent up to now is      749.8 secs

     total energy              =   -1895.40656616 Ry
     estimated scf accuracy    <       0.36868287 Ry

     total magnetization       =    -0.03 Bohr mag/cell
     absolute magnetization    =     0.03 Bohr mag/cell

     iteration # 13     ecut=    90.00 Ry     beta= 0.20
     Davidson diagonalization with overlap
     ethr =  1.59E-05,  avg # of iterations =  1.1

     negative rho (up, down):  1.593E-03 1.581E-03

     total cpu time spent up to now is      787.7 secs

     total energy              =   -1895.41458570 Ry
     estimated scf accuracy    <       0.35173873 Ry

     total magnetization       =    -0.03 Bohr mag/cell
     absolute magnetization    =     0.03 Bohr mag/cell

     iteration # 14     ecut=    90.00 Ry     beta= 0.20
     Davidson diagonalization with overlap
     ethr =  1.59E-05,  avg # of iterations =  2.1

     negative rho (up, down):  1.608E-03 1.596E-03

     total cpu time spent up to now is      831.9 secs

     total energy              =   -1895.35838216 Ry
     estimated scf accuracy    <       0.55424837 Ry

     total magnetization       =    -0.03 Bohr mag/cell
     absolute magnetization    =     0.03 Bohr mag/cell

     iteration # 15     ecut=    90.00 Ry     beta= 0.20
     Davidson diagonalization with overlap
     ethr =  1.59E-05,  avg # of iterations =  5.4

     negative rho (up, down):  1.593E-03 1.581E-03

     total cpu time spent up to now is      896.9 secs

     total energy              =   -1895.39240043 Ry
     estimated scf accuracy    <       0.03164492 Ry

     total magnetization       =    -0.03 Bohr mag/cell
     absolute magnetization    =     0.03 Bohr mag/cell

     iteration # 16     ecut=    90.00 Ry     beta= 0.20
     Davidson diagonalization with overlap
     ethr =  1.59E-05,  avg # of iterations =  1.0

     negative rho (up, down):  1.594E-03 1.581E-03

     total cpu time spent up to now is      934.1 secs

     total energy              =   -1895.39214360 Ry
     estimated scf accuracy    <       0.00899892 Ry

     total magnetization       =    -0.03 Bohr mag/cell
     absolute magnetization    =     0.03 Bohr mag/cell

     iteration # 17     ecut=    90.00 Ry     beta= 0.20
     Davidson diagonalization with overlap
     ethr =  7.26E-06,  avg # of iterations =  2.1

     negative rho (up, down):  1.598E-03 1.583E-03

     total cpu time spent up to now is      976.9 secs

     total energy              =   -1895.39240577 Ry
     estimated scf accuracy    <       0.00141558 Ry

     total magnetization       =    -0.03 Bohr mag/cell
     absolute magnetization    =     0.03 Bohr mag/cell

     iteration # 18     ecut=    90.00 Ry     beta= 0.20
     Davidson diagonalization with overlap
     ethr =  1.14E-06,  avg # of iterations =  5.4

     negative rho (up, down):  1.600E-03 1.585E-03

     total cpu time spent up to now is     1026.8 secs

     total energy              =   -1895.39252340 Ry
     estimated scf accuracy    <       0.00069613 Ry

     total magnetization       =    -0.03 Bohr mag/cell
     absolute magnetization    =     0.03 Bohr mag/cell

     iteration # 19     ecut=    90.00 Ry     beta= 0.20
     Davidson diagonalization with overlap
     ethr =  5.61E-07,  avg # of iterations =  1.5

     negative rho (up, down):  1.606E-03 1.588E-03

     total cpu time spent up to now is     1066.2 secs

     total energy              =   -1895.39247000 Ry
     estimated scf accuracy    <       0.00075226 Ry

     total magnetization       =    -0.03 Bohr mag/cell
     absolute magnetization    =     0.03 Bohr mag/cell

     iteration # 20     ecut=    90.00 Ry     beta= 0.20
     Davidson diagonalization with overlap
     ethr =  5.61E-07,  avg # of iterations =  1.1

     negative rho (up, down):  1.611E-03 1.591E-03

     total cpu time spent up to now is     1103.8 secs

     total energy              =   -1895.39250029 Ry
     estimated scf accuracy    <       0.00001257 Ry

     total magnetization       =    -0.04 Bohr mag/cell
     absolute magnetization    =     0.04 Bohr mag/cell

     iteration # 21     ecut=    90.00 Ry     beta= 0.20
     Davidson diagonalization with overlap
     ethr =  1.01E-08,  avg # of iterations =  6.2

     negative rho (up, down):  1.614E-03 1.592E-03

     total cpu time spent up to now is     1165.5 secs

     total energy              =   -1895.39250991 Ry
     estimated scf accuracy    <       0.00012049 Ry

     total magnetization       =    -0.04 Bohr mag/cell
     absolute magnetization    =     0.04 Bohr mag/cell

     iteration # 22     ecut=    90.00 Ry     beta= 0.20
     Davidson diagonalization with overlap
     ethr =  1.01E-08,  avg # of iterations =  2.4

     negative rho (up, down):  1.614E-03 1.591E-03

     total cpu time spent up to now is     1208.8 secs

     total energy              =   -1895.39251196 Ry
     estimated scf accuracy    <       0.00002973 Ry

     total magnetization       =    -0.04 Bohr mag/cell
     absolute magnetization    =     0.04 Bohr mag/cell

     iteration # 23     ecut=    90.00 Ry     beta= 0.20
     Davidson diagonalization with overlap
     ethr =  1.01E-08,  avg # of iterations =  1.2

     negative rho (up, down):  1.616E-03 1.590E-03

     total cpu time spent up to now is     1246.7 secs

     total energy              =   -1895.39251097 Ry
     estimated scf accuracy    <       0.00001549 Ry

     total magnetization       =    -0.04 Bohr mag/cell
     absolute magnetization    =     0.04 Bohr mag/cell

     iteration # 24     ecut=    90.00 Ry     beta= 0.20
     Davidson diagonalization with overlap
     ethr =  1.01E-08,  avg # of iterations =  2.2

     negative rho (up, down):  1.616E-03 1.590E-03

     total cpu time spent up to now is     1288.9 secs

     total energy              =   -1895.39251181 Ry
     estimated scf accuracy    <       0.00000097 Ry

     total magnetization       =    -0.05 Bohr mag/cell
     absolute magnetization    =     0.05 Bohr mag/cell

     iteration # 25     ecut=    90.00 Ry     beta= 0.20
     Davidson diagonalization with overlap
     ethr =  7.81E-10,  avg # of iterations =  5.2

     negative rho (up, down):  1.616E-03 1.589E-03

     total cpu time spent up to now is     1342.1 secs

     total energy              =   -1895.39251209 Ry
     estimated scf accuracy    <       0.00000084 Ry

     total magnetization       =    -0.05 Bohr mag/cell
     absolute magnetization    =     0.05 Bohr mag/cell

     iteration # 26     ecut=    90.00 Ry     beta= 0.20
     Davidson diagonalization with overlap
     ethr =  6.75E-10,  avg # of iterations =  1.2

     negative rho (up, down):  1.617E-03 1.589E-03

     total cpu time spent up to now is     1380.1 secs

     total energy              =   -1895.39251224 Ry
     estimated scf accuracy    <       0.00000140 Ry

     total magnetization       =    -0.05 Bohr mag/cell
     absolute magnetization    =     0.05 Bohr mag/cell

     iteration # 27     ecut=    90.00 Ry     beta= 0.20
     Davidson diagonalization with overlap
     ethr =  6.75E-10,  avg # of iterations =  2.3

     negative rho (up, down):  1.617E-03 1.588E-03

     total cpu time spent up to now is     1422.2 secs

     total energy              =   -1895.39251236 Ry
     estimated scf accuracy    <       0.00000281 Ry

     total magnetization       =    -0.05 Bohr mag/cell
     absolute magnetization    =     0.05 Bohr mag/cell

     iteration # 28     ecut=    90.00 Ry     beta= 0.20
     Davidson diagonalization with overlap
     ethr =  6.75E-10,  avg # of iterations =  1.0

     negative rho (up, down):  1.617E-03 1.588E-03

     total cpu time spent up to now is     1459.3 secs

     total energy              =   -1895.39251244 Ry
     estimated scf accuracy    <       0.00000295 Ry

     total magnetization       =    -0.05 Bohr mag/cell
     absolute magnetization    =     0.05 Bohr mag/cell

     iteration # 29     ecut=    90.00 Ry     beta= 0.20
     Davidson diagonalization with overlap
     ethr =  6.75E-10,  avg # of iterations =  1.0

     negative rho (up, down):  1.617E-03 1.588E-03

     total cpu time spent up to now is     1496.5 secs

     total energy              =   -1895.39251246 Ry
     estimated scf accuracy    <       0.00000360 Ry

     total magnetization       =    -0.05 Bohr mag/cell
     absolute magnetization    =     0.05 Bohr mag/cell

     iteration # 30     ecut=    90.00 Ry     beta= 0.20
     Davidson diagonalization with overlap
     ethr =  6.75E-10,  avg # of iterations =  1.0

     negative rho (up, down):  1.617E-03 1.588E-03

     total cpu time spent up to now is     1533.5 secs

     total energy              =   -1895.39251232 Ry
     estimated scf accuracy    <       0.00000362 Ry

     total magnetization       =    -0.05 Bohr mag/cell
     absolute magnetization    =     0.05 Bohr mag/cell

     iteration # 31     ecut=    90.00 Ry     beta= 0.20
     Davidson diagonalization with overlap
     ethr =  6.75E-10,  avg # of iterations =  1.0

     negative rho (up, down):  1.616E-03 1.589E-03

     total cpu time spent up to now is     1570.5 secs

     total energy              =   -1895.39251203 Ry
     estimated scf accuracy    <       0.00000294 Ry

     total magnetization       =    -0.05 Bohr mag/cell
     absolute magnetization    =     0.05 Bohr mag/cell

     iteration # 32     ecut=    90.00 Ry     beta= 0.20
     Davidson diagonalization with overlap
     ethr =  6.75E-10,  avg # of iterations =  2.2

     negative rho (up, down):  1.616E-03 1.589E-03

     total cpu time spent up to now is     1613.0 secs

     total energy              =   -1895.39251210 Ry
     estimated scf accuracy    <       0.00000091 Ry

     total magnetization       =    -0.05 Bohr mag/cell
     absolute magnetization    =     0.05 Bohr mag/cell

     iteration # 33     ecut=    90.00 Ry     beta= 0.20
     Davidson diagonalization with overlap
     ethr =  6.75E-10,  avg # of iterations =  1.0

     negative rho (up, down):  1.615E-03 1.590E-03

     total cpu time spent up to now is     1650.0 secs

     total energy              =   -1895.39251169 Ry
     estimated scf accuracy    <       0.00000097 Ry

     total magnetization       =    -0.05 Bohr mag/cell
     absolute magnetization    =     0.05 Bohr mag/cell

     iteration # 34     ecut=    90.00 Ry     beta= 0.20
     Davidson diagonalization with overlap
     ethr =  6.75E-10,  avg # of iterations =  1.2

     negative rho (up, down):  1.617E-03 1.588E-03

     total cpu time spent up to now is     1687.8 secs

     total energy              =   -1895.39251209 Ry
     estimated scf accuracy    <       0.00000155 Ry

     total magnetization       =    -0.04 Bohr mag/cell
     absolute magnetization    =     0.04 Bohr mag/cell

     iteration # 35     ecut=    90.00 Ry     beta= 0.20
     Davidson diagonalization with overlap
     ethr =  6.75E-10,  avg # of iterations =  1.1

     negative rho (up, down):  1.616E-03 1.589E-03

     total cpu time spent up to now is     1725.3 secs

     total energy              =   -1895.39251212 Ry
     estimated scf accuracy    <       0.00000103 Ry

     total magnetization       =    -0.05 Bohr mag/cell
     absolute magnetization    =     0.05 Bohr mag/cell

     iteration # 36     ecut=    90.00 Ry     beta= 0.20
     Davidson diagonalization with overlap
     ethr =  6.75E-10,  avg # of iterations =  1.0

     negative rho (up, down):  1.616E-03 1.589E-03

     total cpu time spent up to now is     1762.3 secs

     total energy              =   -1895.39251200 Ry
     estimated scf accuracy    <       0.00000119 Ry

     total magnetization       =    -0.05 Bohr mag/cell
     absolute magnetization    =     0.05 Bohr mag/cell

     iteration # 37     ecut=    90.00 Ry     beta= 0.20
     Davidson diagonalization with overlap
     ethr =  6.75E-10,  avg # of iterations =  1.0

     negative rho (up, down):  1.616E-03 1.590E-03

     total cpu time spent up to now is     1799.3 secs

     total energy              =   -1895.39251188 Ry
     estimated scf accuracy    <       0.00000207 Ry

     total magnetization       =    -0.05 Bohr mag/cell
     absolute magnetization    =     0.05 Bohr mag/cell

     iteration # 38     ecut=    90.00 Ry     beta= 0.20
     Davidson diagonalization with overlap
     ethr =  6.75E-10,  avg # of iterations =  1.0

     negative rho (up, down):  1.610E-03 1.594E-03

     total cpu time spent up to now is     1836.3 secs

     total energy              =   -1895.39251022 Ry
     estimated scf accuracy    <       0.00000133 Ry

     total magnetization       =    -0.05 Bohr mag/cell
     absolute magnetization    =     0.05 Bohr mag/cell

     iteration # 39     ecut=    90.00 Ry     beta= 0.20
     Davidson diagonalization with overlap
     ethr =  6.75E-10,  avg # of iterations =  4.8

     negative rho (up, down):  1.604E-03 1.600E-03

     total cpu time spent up to now is     1887.1 secs

     total energy              =   -1895.39250900 Ry
     estimated scf accuracy    <       0.00000095 Ry

     total magnetization       =    -0.03 Bohr mag/cell
     absolute magnetization    =     0.03 Bohr mag/cell

     iteration # 40     ecut=    90.00 Ry     beta= 0.20
     Davidson diagonalization with overlap
     ethr =  6.75E-10,  avg # of iterations =  4.7

     negative rho (up, down):  1.603E-03 1.601E-03

     total cpu time spent up to now is     1942.0 secs

     total energy              =   -1895.39251026 Ry
     estimated scf accuracy    <       0.00000094 Ry

     total magnetization       =    -0.01 Bohr mag/cell
     absolute magnetization    =     0.02 Bohr mag/cell

     iteration # 41     ecut=    90.00 Ry     beta= 0.20
     Davidson diagonalization with overlap
     ethr =  6.75E-10,  avg # of iterations =  2.7

     negative rho (up, down):  1.602E-03 1.602E-03

     total cpu time spent up to now is     1984.1 secs

     total energy              =   -1895.39251022 Ry
     estimated scf accuracy    <       0.00000031 Ry

     total magnetization       =    -0.01 Bohr mag/cell
     absolute magnetization    =     0.01 Bohr mag/cell

     iteration # 42     ecut=    90.00 Ry     beta= 0.20
     Davidson diagonalization with overlap
     ethr =  2.47E-10,  avg # of iterations =  2.7

     negative rho (up, down):  1.601E-03 1.602E-03

     total cpu time spent up to now is     2026.9 secs

     total energy              =   -1895.39251029 Ry
     estimated scf accuracy    <       0.00000010 Ry

     total magnetization       =    -0.01 Bohr mag/cell
     absolute magnetization    =     0.01 Bohr mag/cell

     iteration # 43     ecut=    90.00 Ry     beta= 0.20
     Davidson diagonalization with overlap
     ethr =  7.95E-11,  avg # of iterations =  3.8

     negative rho (up, down):  1.601E-03 1.603E-03

     total cpu time spent up to now is     2076.5 secs

     total energy              =   -1895.39251031 Ry
     estimated scf accuracy    <       0.00000016 Ry

     total magnetization       =    -0.00 Bohr mag/cell
     absolute magnetization    =     0.01 Bohr mag/cell

     iteration # 44     ecut=    90.00 Ry     beta= 0.20
     Davidson diagonalization with overlap
     ethr =  7.95E-11,  avg # of iterations =  1.8

     negative rho (up, down):  1.602E-03 1.602E-03

     total cpu time spent up to now is     2116.3 secs

     total energy              =   -1895.39251031 Ry
     estimated scf accuracy    <       0.00000010 Ry

     total magnetization       =    -0.00 Bohr mag/cell
     absolute magnetization    =     0.01 Bohr mag/cell

     iteration # 45     ecut=    90.00 Ry     beta= 0.20
     Davidson diagonalization with overlap
     ethr =  7.95E-11,  avg # of iterations =  1.7

     negative rho (up, down):  1.601E-03 1.603E-03

     total cpu time spent up to now is     2157.0 secs

     total energy              =   -1895.39251031 Ry
     estimated scf accuracy    <       0.00000037 Ry

     total magnetization       =    -0.00 Bohr mag/cell
     absolute magnetization    =     0.01 Bohr mag/cell

     iteration # 46     ecut=    90.00 Ry     beta= 0.20
     Davidson diagonalization with overlap
     ethr =  7.95E-11,  avg # of iterations =  1.2

     negative rho (up, down):  1.601E-03 1.603E-03

     total cpu time spent up to now is     2194.6 secs

     total energy              =   -1895.39251033 Ry
     estimated scf accuracy    <       0.00000013 Ry

     total magnetization       =    -0.00 Bohr mag/cell
     absolute magnetization    =     0.01 Bohr mag/cell

     iteration # 47     ecut=    90.00 Ry     beta= 0.20
     Davidson diagonalization with overlap
     ethr =  7.95E-11,  avg # of iterations =  1.0

     negative rho (up, down):  1.601E-03 1.603E-03

     total cpu time spent up to now is     2231.6 secs

     total energy              =   -1895.39251033 Ry
     estimated scf accuracy    <       0.00000008 Ry

     total magnetization       =    -0.00 Bohr mag/cell
     absolute magnetization    =     0.01 Bohr mag/cell

     iteration # 48     ecut=    90.00 Ry     beta= 0.20
     Davidson diagonalization with overlap
     ethr =  6.15E-11,  avg # of iterations =  1.1

     negative rho (up, down):  1.601E-03 1.603E-03

     total cpu time spent up to now is     2269.0 secs

     total energy              =   -1895.39251034 Ry
     estimated scf accuracy    <       0.00000009 Ry

     total magnetization       =    -0.00 Bohr mag/cell
     absolute magnetization    =     0.01 Bohr mag/cell

     iteration # 49     ecut=    90.00 Ry     beta= 0.20
     Davidson diagonalization with overlap
     ethr =  6.15E-11,  avg # of iterations =  1.0

     negative rho (up, down):  1.601E-03 1.603E-03

     total cpu time spent up to now is     2306.0 secs

     total energy              =   -1895.39251036 Ry
     estimated scf accuracy    <       0.00000003 Ry

     total magnetization       =    -0.00 Bohr mag/cell
     absolute magnetization    =     0.01 Bohr mag/cell

     iteration # 50     ecut=    90.00 Ry     beta= 0.20
     Davidson diagonalization with overlap
     ethr =  2.59E-11,  avg # of iterations =  2.6

     negative rho (up, down):  1.601E-03 1.603E-03

     total cpu time spent up to now is     2348.8 secs

     total energy              =   -1895.39251037 Ry
     estimated scf accuracy    <       0.00000003 Ry

     total magnetization       =    -0.00 Bohr mag/cell
     absolute magnetization    =     0.01 Bohr mag/cell

     iteration # 51     ecut=    90.00 Ry     beta= 0.20
     Davidson diagonalization with overlap
     ethr =  2.27E-11,  avg # of iterations =  3.1

     negative rho (up, down):  1.601E-03 1.603E-03

     total cpu time spent up to now is     2393.3 secs

     total energy              =   -1895.39251038 Ry
     estimated scf accuracy    <       0.00000005 Ry

     total magnetization       =     0.00 Bohr mag/cell
     absolute magnetization    =     0.01 Bohr mag/cell

     iteration # 52     ecut=    90.00 Ry     beta= 0.20
     Davidson diagonalization with overlap
     ethr =  2.27E-11,  avg # of iterations =  1.0

     negative rho (up, down):  1.601E-03 1.603E-03

     total cpu time spent up to now is     2430.4 secs

     total energy              =   -1895.39251039 Ry
     estimated scf accuracy    <       0.00000003 Ry

     total magnetization       =     0.00 Bohr mag/cell
     absolute magnetization    =     0.01 Bohr mag/cell

     iteration # 53     ecut=    90.00 Ry     beta= 0.20
     Davidson diagonalization with overlap
     ethr =  2.04E-11,  avg # of iterations =  2.1

     negative rho (up, down):  1.601E-03 1.603E-03

     total cpu time spent up to now is     2471.5 secs

     total energy              =   -1895.39251039 Ry
     estimated scf accuracy    <       0.00000002 Ry

     total magnetization       =     0.00 Bohr mag/cell
     absolute magnetization    =     0.01 Bohr mag/cell

     iteration # 54     ecut=    90.00 Ry     beta= 0.20
     Davidson diagonalization with overlap
     ethr =  1.88E-11,  avg # of iterations =  2.1

     negative rho (up, down):  1.601E-03 1.603E-03

     total cpu time spent up to now is     2512.7 secs

     total energy              =   -1895.39251041 Ry
     estimated scf accuracy    <       0.00000003 Ry

     total magnetization       =     0.00 Bohr mag/cell
     absolute magnetization    =     0.01 Bohr mag/cell

     iteration # 55     ecut=    90.00 Ry     beta= 0.20
     Davidson diagonalization with overlap
     ethr =  1.88E-11,  avg # of iterations =  4.3

     negative rho (up, down):  1.601E-03 1.603E-03

     total cpu time spent up to now is     2561.1 secs

     total energy              =   -1895.39251042 Ry
     estimated scf accuracy    <       0.00000003 Ry

     total magnetization       =     0.00 Bohr mag/cell
     absolute magnetization    =     0.01 Bohr mag/cell

     iteration # 56     ecut=    90.00 Ry     beta= 0.20
     Davidson diagonalization with overlap
     ethr =  1.88E-11,  avg # of iterations =  1.1

     negative rho (up, down):  1.601E-03 1.604E-03

     total cpu time spent up to now is     2598.5 secs

     total energy              =   -1895.39251041 Ry
     estimated scf accuracy    <       0.00000003 Ry

     total magnetization       =     0.00 Bohr mag/cell
     absolute magnetization    =     0.01 Bohr mag/cell

     iteration # 57     ecut=    90.00 Ry     beta= 0.20
     Davidson diagonalization with overlap
     ethr =  1.88E-11,  avg # of iterations =  1.1

     negative rho (up, down):  1.601E-03 1.604E-03

     total cpu time spent up to now is     2635.7 secs

     total energy              =   -1895.39251042 Ry
     estimated scf accuracy    <       0.00000003 Ry

     total magnetization       =     0.00 Bohr mag/cell
     absolute magnetization    =     0.01 Bohr mag/cell

     iteration # 58     ecut=    90.00 Ry     beta= 0.20
     Davidson diagonalization with overlap
     ethr =  1.88E-11,  avg # of iterations =  1.0

     negative rho (up, down):  1.601E-03 1.604E-03

     total cpu time spent up to now is     2672.5 secs

     total energy              =   -1895.39251041 Ry
     estimated scf accuracy    <       0.00000002 Ry

     total magnetization       =     0.00 Bohr mag/cell
     absolute magnetization    =     0.01 Bohr mag/cell

     iteration # 59     ecut=    90.00 Ry     beta= 0.20
     Davidson diagonalization with overlap
     ethr =  1.88E-11,  avg # of iterations =  1.0

     negative rho (up, down):  1.601E-03 1.603E-03

     total cpu time spent up to now is     2709.3 secs

     total energy              =   -1895.39251041 Ry
     estimated scf accuracy    <       0.00000003 Ry

     total magnetization       =     0.00 Bohr mag/cell
     absolute magnetization    =     0.01 Bohr mag/cell

     iteration # 60     ecut=    90.00 Ry     beta= 0.20
     Davidson diagonalization with overlap
     ethr =  1.88E-11,  avg # of iterations =  1.1

     negative rho (up, down):  1.601E-03 1.603E-03

     total cpu time spent up to now is     2746.6 secs

     total energy              =   -1895.39251041 Ry
     estimated scf accuracy    <       0.00000003 Ry

     total magnetization       =     0.00 Bohr mag/cell
     absolute magnetization    =     0.01 Bohr mag/cell

     iteration # 61     ecut=    90.00 Ry     beta= 0.20
     Davidson diagonalization with overlap
     ethr =  1.88E-11,  avg # of iterations =  1.0

     negative rho (up, down):  1.601E-03 1.603E-03

     total cpu time spent up to now is     2783.4 secs

     total energy              =   -1895.39251040 Ry
     estimated scf accuracy    <       0.00000003 Ry

     total magnetization       =     0.00 Bohr mag/cell
     absolute magnetization    =     0.01 Bohr mag/cell

     iteration # 62     ecut=    90.00 Ry     beta= 0.20
     Davidson diagonalization with overlap
     ethr =  1.88E-11,  avg # of iterations =  1.0

     negative rho (up, down):  1.601E-03 1.604E-03

     total cpu time spent up to now is     2820.2 secs

     total energy              =   -1895.39251041 Ry
     estimated scf accuracy    <       0.00000003 Ry

     total magnetization       =     0.00 Bohr mag/cell
     absolute magnetization    =     0.01 Bohr mag/cell

     iteration # 63     ecut=    90.00 Ry     beta= 0.20
     Davidson diagonalization with overlap
     ethr =  1.88E-11,  avg # of iterations =  1.0

     negative rho (up, down):  1.601E-03 1.604E-03

     total cpu time spent up to now is     2857.0 secs

     total energy              =   -1895.39251043 Ry
     estimated scf accuracy    <       0.00000003 Ry

     total magnetization       =     0.00 Bohr mag/cell
     absolute magnetization    =     0.01 Bohr mag/cell

     iteration # 64     ecut=    90.00 Ry     beta= 0.20
     Davidson diagonalization with overlap
     ethr =  1.88E-11,  avg # of iterations =  3.2

     negative rho (up, down):  1.601E-03 1.604E-03

     total cpu time spent up to now is     2903.0 secs

     total energy              =   -1895.39251044 Ry
     estimated scf accuracy    <       0.00000003 Ry

     total magnetization       =     0.00 Bohr mag/cell
     absolute magnetization    =     0.02 Bohr mag/cell

     iteration # 65     ecut=    90.00 Ry     beta= 0.20
     Davidson diagonalization with overlap
     ethr =  1.88E-11,  avg # of iterations =  2.3

     negative rho (up, down):  1.601E-03 1.604E-03

     total cpu time spent up to now is     2944.3 secs

     total energy              =   -1895.39251044 Ry
     estimated scf accuracy    <       0.00000002 Ry

     total magnetization       =     0.00 Bohr mag/cell
     absolute magnetization    =     0.02 Bohr mag/cell

     iteration # 66     ecut=    90.00 Ry     beta= 0.20
     Davidson diagonalization with overlap
     ethr =  1.88E-11,  avg # of iterations =  1.0

     negative rho (up, down):  1.601E-03 1.603E-03

     total cpu time spent up to now is     2981.1 secs

     total energy              =   -1895.39251042 Ry
     estimated scf accuracy    <       0.00000003 Ry

     total magnetization       =     0.00 Bohr mag/cell
     absolute magnetization    =     0.02 Bohr mag/cell

     iteration # 67     ecut=    90.00 Ry     beta= 0.20
     Davidson diagonalization with overlap
     ethr =  1.88E-11,  avg # of iterations =  2.6

     negative rho (up, down):  1.601E-03 1.604E-03

     total cpu time spent up to now is     3023.6 secs

     total energy              =   -1895.39251043 Ry
     estimated scf accuracy    <       0.00000005 Ry

     total magnetization       =     0.00 Bohr mag/cell
     absolute magnetization    =     0.01 Bohr mag/cell

     iteration # 68     ecut=    90.00 Ry     beta= 0.20
     Davidson diagonalization with overlap
     ethr =  1.88E-11,  avg # of iterations =  1.6

     negative rho (up, down):  1.601E-03 1.604E-03

     total cpu time spent up to now is     3062.3 secs

     total energy              =   -1895.39251040 Ry
     estimated scf accuracy    <       0.00000003 Ry

     total magnetization       =     0.00 Bohr mag/cell
     absolute magnetization    =     0.02 Bohr mag/cell

     iteration # 69     ecut=    90.00 Ry     beta= 0.20
     Davidson diagonalization with overlap
     ethr =  1.88E-11,  avg # of iterations =  3.4

     negative rho (up, down):  1.601E-03 1.604E-03

     total cpu time spent up to now is     3107.5 secs

     total energy              =   -1895.39251042 Ry
     estimated scf accuracy    <       0.00000002 Ry

     total magnetization       =     0.00 Bohr mag/cell
     absolute magnetization    =     0.01 Bohr mag/cell

     iteration # 70     ecut=    90.00 Ry     beta= 0.20
     Davidson diagonalization with overlap
     ethr =  1.88E-11,  avg # of iterations =  1.1

     negative rho (up, down):  1.601E-03 1.604E-03

     total cpu time spent up to now is     3144.7 secs

     total energy              =   -1895.39251043 Ry
     estimated scf accuracy    <       0.00000003 Ry

     total magnetization       =     0.00 Bohr mag/cell
     absolute magnetization    =     0.01 Bohr mag/cell

     iteration # 71     ecut=    90.00 Ry     beta= 0.20
     Davidson diagonalization with overlap
     ethr =  1.88E-11,  avg # of iterations =  1.3

     negative rho (up, down):  1.600E-03 1.604E-03

     total cpu time spent up to now is     3182.8 secs

     total energy              =   -1895.39251043 Ry
     estimated scf accuracy    <       0.00000003 Ry

     total magnetization       =     0.00 Bohr mag/cell
     absolute magnetization    =     0.01 Bohr mag/cell

     iteration # 72     ecut=    90.00 Ry     beta= 0.20
     Davidson diagonalization with overlap
     ethr =  1.88E-11,  avg # of iterations =  1.6

     negative rho (up, down):  1.600E-03 1.604E-03

     total cpu time spent up to now is     3221.9 secs

     total energy              =   -1895.39251044 Ry
     estimated scf accuracy    <       0.00000002 Ry

     total magnetization       =     0.00 Bohr mag/cell
     absolute magnetization    =     0.02 Bohr mag/cell

     iteration # 73     ecut=    90.00 Ry     beta= 0.20
     Davidson diagonalization with overlap
     ethr =  1.88E-11,  avg # of iterations =  2.9

     negative rho (up, down):  1.600E-03 1.604E-03

     total cpu time spent up to now is     3265.1 secs

     total energy              =   -1895.39251045 Ry
     estimated scf accuracy    <       0.00000003 Ry

     total magnetization       =     0.00 Bohr mag/cell
     absolute magnetization    =     0.02 Bohr mag/cell

     iteration # 74     ecut=    90.00 Ry     beta= 0.20
     Davidson diagonalization with overlap
     ethr =  1.88E-11,  avg # of iterations =  1.0

     negative rho (up, down):  1.600E-03 1.604E-03

     total cpu time spent up to now is     3301.9 secs

     total energy              =   -1895.39251045 Ry
     estimated scf accuracy    <       0.00000003 Ry

     total magnetization       =     0.00 Bohr mag/cell
     absolute magnetization    =     0.02 Bohr mag/cell

     iteration # 75     ecut=    90.00 Ry     beta= 0.20
     Davidson diagonalization with overlap
     ethr =  1.88E-11,  avg # of iterations =  1.1

     negative rho (up, down):  1.600E-03 1.604E-03

     total cpu time spent up to now is     3339.0 secs

     total energy              =   -1895.39251044 Ry
     estimated scf accuracy    <       0.00000003 Ry

     total magnetization       =     0.00 Bohr mag/cell
     absolute magnetization    =     0.02 Bohr mag/cell

     iteration # 76     ecut=    90.00 Ry     beta= 0.20
     Davidson diagonalization with overlap
     ethr =  1.88E-11,  avg # of iterations =  1.0

     negative rho (up, down):  1.600E-03 1.604E-03

     total cpu time spent up to now is     3375.9 secs

     total energy              =   -1895.39251044 Ry
     estimated scf accuracy    <       0.00000003 Ry

     total magnetization       =     0.00 Bohr mag/cell
     absolute magnetization    =     0.02 Bohr mag/cell

     iteration # 77     ecut=    90.00 Ry     beta= 0.20
     Davidson diagonalization with overlap
     ethr =  1.88E-11,  avg # of iterations =  1.0

     negative rho (up, down):  1.600E-03 1.604E-03

     total cpu time spent up to now is     3413.0 secs

     total energy              =   -1895.39251045 Ry
     estimated scf accuracy    <       0.00000004 Ry

     total magnetization       =     0.00 Bohr mag/cell
     absolute magnetization    =     0.02 Bohr mag/cell

     iteration # 78     ecut=    90.00 Ry     beta= 0.20
     Davidson diagonalization with overlap
     ethr =  1.88E-11,  avg # of iterations =  2.7

     negative rho (up, down):  1.600E-03 1.604E-03

     total cpu time spent up to now is     3456.6 secs

     total energy              =   -1895.39251047 Ry
     estimated scf accuracy    <       0.00000004 Ry

     total magnetization       =     0.00 Bohr mag/cell
     absolute magnetization    =     0.02 Bohr mag/cell

     iteration # 79     ecut=    90.00 Ry     beta= 0.20
     Davidson diagonalization with overlap
     ethr =  1.88E-11,  avg # of iterations =  2.6

     negative rho (up, down):  1.601E-03 1.604E-03

     total cpu time spent up to now is     3498.8 secs

     total energy              =   -1895.39251040 Ry
     estimated scf accuracy    <       0.00000004 Ry

     total magnetization       =     0.00 Bohr mag/cell
     absolute magnetization    =     0.02 Bohr mag/cell

     iteration # 80     ecut=    90.00 Ry     beta= 0.20
     Davidson diagonalization with overlap
     ethr =  1.88E-11,  avg # of iterations =  4.5

     negative rho (up, down):  1.601E-03 1.603E-03

     total cpu time spent up to now is     3551.6 secs

     total energy              =   -1895.39251041 Ry
     estimated scf accuracy    <       0.00000008 Ry

     total magnetization       =     0.00 Bohr mag/cell
     absolute magnetization    =     0.02 Bohr mag/cell

     iteration # 81     ecut=    90.00 Ry     beta= 0.20
     Davidson diagonalization with overlap
     ethr =  1.88E-11,  avg # of iterations =  3.7

     negative rho (up, down):  1.602E-03 1.603E-03

     total cpu time spent up to now is     3597.7 secs

     total energy              =   -1895.39251034 Ry
     estimated scf accuracy    <       0.00000007 Ry

     total magnetization       =     0.00 Bohr mag/cell
     absolute magnetization    =     0.01 Bohr mag/cell

     iteration # 82     ecut=    90.00 Ry     beta= 0.20
     Davidson diagonalization with overlap
     ethr =  1.88E-11,  avg # of iterations =  5.6

     negative rho (up, down):  1.602E-03 1.603E-03

     total cpu time spent up to now is     3662.1 secs

     total energy              =   -1895.39251039 Ry
     estimated scf accuracy    <       0.00000002 Ry

     total magnetization       =     0.00 Bohr mag/cell
     absolute magnetization    =     0.01 Bohr mag/cell

     iteration # 83     ecut=    90.00 Ry     beta= 0.20
     Davidson diagonalization with overlap
     ethr =  1.34E-11,  avg # of iterations =  1.5

     negative rho (up, down):  1.602E-03 1.603E-03

     total cpu time spent up to now is     3701.2 secs

     total energy              =   -1895.39251037 Ry
     estimated scf accuracy    <       0.00000002 Ry

     total magnetization       =     0.00 Bohr mag/cell
     absolute magnetization    =     0.01 Bohr mag/cell

     iteration # 84     ecut=    90.00 Ry     beta= 0.20
     Davidson diagonalization with overlap
     ethr =  1.34E-11,  avg # of iterations =  1.9

     negative rho (up, down):  1.602E-03 1.603E-03

     total cpu time spent up to now is     3742.0 secs

     total energy              =   -1895.39251038 Ry
     estimated scf accuracy    <       0.00000002 Ry

     total magnetization       =    -0.00 Bohr mag/cell
     absolute magnetization    =     0.01 Bohr mag/cell

     iteration # 85     ecut=    90.00 Ry     beta= 0.20
     Davidson diagonalization with overlap
     ethr =  1.25E-11,  avg # of iterations =  1.6

     negative rho (up, down):  1.602E-03 1.602E-03

     total cpu time spent up to now is     3781.4 secs

     total energy              =   -1895.39251035 Ry
     estimated scf accuracy    <       0.00000002 Ry

     total magnetization       =    -0.00 Bohr mag/cell
     absolute magnetization    =     0.01 Bohr mag/cell

     iteration # 86     ecut=    90.00 Ry     beta= 0.20
     Davidson diagonalization with overlap
     ethr =  1.25E-11,  avg # of iterations =  5.4

     negative rho (up, down):  1.602E-03 1.602E-03

     total cpu time spent up to now is     3840.5 secs

     total energy              =   -1895.39251037 Ry
     estimated scf accuracy    <       0.00000002 Ry

     total magnetization       =    -0.00 Bohr mag/cell
     absolute magnetization    =     0.01 Bohr mag/cell

     iteration # 87     ecut=    90.00 Ry     beta= 0.20
     Davidson diagonalization with overlap
     ethr =  1.21E-11,  avg # of iterations =  1.8

     negative rho (up, down):  1.602E-03 1.602E-03

     total cpu time spent up to now is     3880.3 secs

     total energy              =   -1895.39251037 Ry
     estimated scf accuracy    <       0.00000002 Ry

     total magnetization       =    -0.00 Bohr mag/cell
     absolute magnetization    =     0.01 Bohr mag/cell

     iteration # 88     ecut=    90.00 Ry     beta= 0.20
     Davidson diagonalization with overlap
     ethr =  1.21E-11,  avg # of iterations =  1.1

     negative rho (up, down):  1.602E-03 1.602E-03

     total cpu time spent up to now is     3917.8 secs

     total energy              =   -1895.39251038 Ry
     estimated scf accuracy    <       0.00000002 Ry

     total magnetization       =    -0.00 Bohr mag/cell
     absolute magnetization    =     0.01 Bohr mag/cell

     iteration # 89     ecut=    90.00 Ry     beta= 0.20
     Davidson diagonalization with overlap
     ethr =  1.21E-11,  avg # of iterations =  1.1

     negative rho (up, down):  1.602E-03 1.602E-03

     total cpu time spent up to now is     3955.1 secs

     total energy              =   -1895.39251038 Ry
     estimated scf accuracy    <       0.00000001 Ry

     total magnetization       =    -0.00 Bohr mag/cell
     absolute magnetization    =     0.01 Bohr mag/cell

     iteration # 90     ecut=    90.00 Ry     beta= 0.20
     Davidson diagonalization with overlap
     ethr =  1.14E-11,  avg # of iterations =  1.9

     negative rho (up, down):  1.602E-03 1.602E-03

     total cpu time spent up to now is     3995.8 secs

     total energy              =   -1895.39251038 Ry
     estimated scf accuracy    <       0.00000001 Ry

     total magnetization       =    -0.00 Bohr mag/cell
     absolute magnetization    =     0.01 Bohr mag/cell

     iteration # 91     ecut=    90.00 Ry     beta= 0.20
     Davidson diagonalization with overlap
     ethr =  1.10E-11,  avg # of iterations =  1.1

     negative rho (up, down):  1.602E-03 1.602E-03

     total cpu time spent up to now is     4032.9 secs

     total energy              =   -1895.39251037 Ry
     estimated scf accuracy    <       0.00000002 Ry

     total magnetization       =    -0.00 Bohr mag/cell
     absolute magnetization    =     0.01 Bohr mag/cell

     iteration # 92     ecut=    90.00 Ry     beta= 0.20
     Davidson diagonalization with overlap
     ethr =  1.10E-11,  avg # of iterations =  2.3

     negative rho (up, down):  1.602E-03 1.602E-03

     total cpu time spent up to now is     4075.7 secs

     total energy              =   -1895.39251037 Ry
     estimated scf accuracy    <       0.00000001 Ry

     total magnetization       =    -0.00 Bohr mag/cell
     absolute magnetization    =     0.01 Bohr mag/cell

     iteration # 93     ecut=    90.00 Ry     beta= 0.20
     Davidson diagonalization with overlap
     ethr =  1.10E-11,  avg # of iterations =  1.0

     negative rho (up, down):  1.602E-03 1.602E-03

     total cpu time spent up to now is     4112.6 secs

     total energy              =   -1895.39251038 Ry
     estimated scf accuracy    <       0.00000002 Ry

     total magnetization       =    -0.00 Bohr mag/cell
     absolute magnetization    =     0.01 Bohr mag/cell

     iteration # 94     ecut=    90.00 Ry     beta= 0.20
     Davidson diagonalization with overlap
     ethr =  1.10E-11,  avg # of iterations =  2.2

     negative rho (up, down):  1.602E-03 1.602E-03

     total cpu time spent up to now is     4154.6 secs

     total energy              =   -1895.39251038 Ry
     estimated scf accuracy    <       0.00000001 Ry

     total magnetization       =    -0.00 Bohr mag/cell
     absolute magnetization    =     0.01 Bohr mag/cell

     iteration # 95     ecut=    90.00 Ry     beta= 0.20
     Davidson diagonalization with overlap
     ethr =  9.71E-12,  avg # of iterations =  1.0

     negative rho (up, down):  1.602E-03 1.602E-03

     total cpu time spent up to now is     4191.6 secs

     total energy              =   -1895.39251038 Ry
     estimated scf accuracy    <       0.00000001 Ry

     total magnetization       =    -0.00 Bohr mag/cell
     absolute magnetization    =     0.01 Bohr mag/cell

     iteration # 96     ecut=    90.00 Ry     beta= 0.20
     Davidson diagonalization with overlap
     ethr =  9.71E-12,  avg # of iterations =  2.7

     negative rho (up, down):  1.602E-03 1.602E-03

     total cpu time spent up to now is     4234.4 secs

     total energy              =   -1895.39251034 Ry
     estimated scf accuracy    <       0.00000001 Ry

     total magnetization       =    -0.00 Bohr mag/cell
     absolute magnetization    =     0.01 Bohr mag/cell

     iteration # 97     ecut=    90.00 Ry     beta= 0.20
     Davidson diagonalization with overlap
     ethr =  9.71E-12,  avg # of iterations =  5.2

     negative rho (up, down):  1.602E-03 1.602E-03

     total cpu time spent up to now is     4293.7 secs

     total energy              =   -1895.39251036 Ry
     estimated scf accuracy    <       0.00000003 Ry

     total magnetization       =    -0.00 Bohr mag/cell
     absolute magnetization    =     0.01 Bohr mag/cell

     iteration # 98     ecut=    90.00 Ry     beta= 0.20
     Davidson diagonalization with overlap
     ethr =  9.71E-12,  avg # of iterations =  1.3

     negative rho (up, down):  1.602E-03 1.602E-03

     total cpu time spent up to now is     4331.8 secs

     total energy              =   -1895.39251036 Ry
     estimated scf accuracy    <       0.00000002 Ry

     total magnetization       =    -0.00 Bohr mag/cell
     absolute magnetization    =     0.01 Bohr mag/cell

     iteration # 99     ecut=    90.00 Ry     beta= 0.20
     Davidson diagonalization with overlap
     ethr =  9.71E-12,  avg # of iterations =  1.0

     negative rho (up, down):  1.602E-03 1.602E-03

     total cpu time spent up to now is     4368.7 secs

     total energy              =   -1895.39251035 Ry
     estimated scf accuracy    <       0.00000002 Ry

     total magnetization       =    -0.00 Bohr mag/cell
     absolute magnetization    =     0.01 Bohr mag/cell

     iteration #100     ecut=    90.00 Ry     beta= 0.20
     Davidson diagonalization with overlap
     ethr =  9.71E-12,  avg # of iterations =  2.8

     negative rho (up, down):  1.602E-03 1.602E-03

     total cpu time spent up to now is     4413.2 secs

     total energy              =   -1895.39251036 Ry
     estimated scf accuracy    <       0.00000001 Ry

     total magnetization       =    -0.00 Bohr mag/cell
     absolute magnetization    =     0.01 Bohr mag/cell

     iteration #101     ecut=    90.00 Ry     beta= 0.20
     Davidson diagonalization with overlap
     ethr =  9.71E-12,  avg # of iterations =  1.0

     negative rho (up, down):  1.602E-03 1.602E-03

     total cpu time spent up to now is     4450.3 secs

     total energy              =   -1895.39251035 Ry
     estimated scf accuracy    <       0.00000001 Ry

     total magnetization       =    -0.00 Bohr mag/cell
     absolute magnetization    =     0.01 Bohr mag/cell

     iteration #102     ecut=    90.00 Ry     beta= 0.20
     Davidson diagonalization with overlap
     ethr =  9.71E-12,  avg # of iterations =  4.7

     negative rho (up, down):  1.602E-03 1.601E-03

     total cpu time spent up to now is     4499.6 secs

     total energy              =   -1895.39251034 Ry
     estimated scf accuracy    <       0.00000001 Ry

     total magnetization       =    -0.00 Bohr mag/cell
     absolute magnetization    =     0.01 Bohr mag/cell

     iteration #103     ecut=    90.00 Ry     beta= 0.20
     Davidson diagonalization with overlap
     ethr =  8.20E-12,  avg # of iterations =  5.0

     negative rho (up, down):  1.602E-03 1.602E-03

     total cpu time spent up to now is     4553.9 secs

     total energy              =   -1895.39251035 Ry
     estimated scf accuracy    <       0.00000002 Ry

     total magnetization       =    -0.00 Bohr mag/cell
     absolute magnetization    =     0.01 Bohr mag/cell

     iteration #104     ecut=    90.00 Ry     beta= 0.20
     Davidson diagonalization with overlap
     ethr =  8.20E-12,  avg # of iterations =  1.2

     negative rho (up, down):  1.602E-03 1.601E-03

     total cpu time spent up to now is     4591.9 secs

     total energy              =   -1895.39251034 Ry
     estimated scf accuracy    <       0.00000001 Ry

     total magnetization       =    -0.00 Bohr mag/cell
     absolute magnetization    =     0.01 Bohr mag/cell

     iteration #105     ecut=    90.00 Ry     beta= 0.20
     Davidson diagonalization with overlap
     ethr =  8.20E-12,  avg # of iterations =  2.8

     negative rho (up, down):  1.603E-03 1.601E-03

     total cpu time spent up to now is     4636.1 secs

     total energy              =   -1895.39251034 Ry
     estimated scf accuracy    <       0.00000001 Ry

     total magnetization       =    -0.00 Bohr mag/cell
     absolute magnetization    =     0.01 Bohr mag/cell

     iteration #106     ecut=    90.00 Ry     beta= 0.20
     Davidson diagonalization with overlap
     ethr =  8.20E-12,  avg # of iterations =  4.3

     negative rho (up, down):  1.603E-03 1.601E-03

     total cpu time spent up to now is     4683.9 secs

     total energy              =   -1895.39251034 Ry
     estimated scf accuracy    <       0.00000001 Ry

     total magnetization       =    -0.00 Bohr mag/cell
     absolute magnetization    =     0.01 Bohr mag/cell

     iteration #107     ecut=    90.00 Ry     beta= 0.20
     Davidson diagonalization with overlap
     ethr =  8.17E-12,  avg # of iterations =  1.1

     negative rho (up, down):  1.603E-03 1.601E-03

     total cpu time spent up to now is     4721.1 secs

     total energy              =   -1895.39251034 Ry
     estimated scf accuracy    <       0.00000001 Ry

     total magnetization       =    -0.00 Bohr mag/cell
     absolute magnetization    =     0.01 Bohr mag/cell

     iteration #108     ecut=    90.00 Ry     beta= 0.20
     Davidson diagonalization with overlap
     ethr =  8.17E-12,  avg # of iterations =  1.0

     negative rho (up, down):  1.603E-03 1.601E-03

     total cpu time spent up to now is     4758.0 secs

     total energy              =   -1895.39251034 Ry
     estimated scf accuracy    <       0.00000001 Ry

     total magnetization       =    -0.00 Bohr mag/cell
     absolute magnetization    =     0.01 Bohr mag/cell

     iteration #109     ecut=    90.00 Ry     beta= 0.20
     Davidson diagonalization with overlap
     ethr =  8.17E-12,  avg # of iterations =  1.5

     negative rho (up, down):  1.603E-03 1.601E-03

     total cpu time spent up to now is     4796.9 secs

     total energy              =   -1895.39251035 Ry
     estimated scf accuracy    <       0.00000002 Ry

     total magnetization       =    -0.00 Bohr mag/cell
     absolute magnetization    =     0.01 Bohr mag/cell

     iteration #110     ecut=    90.00 Ry     beta= 0.20
     Davidson diagonalization with overlap
     ethr =  8.17E-12,  avg # of iterations =  5.3

     negative rho (up, down):  1.603E-03 1.601E-03

     total cpu time spent up to now is     4853.7 secs

     total energy              =   -1895.39251034 Ry
     estimated scf accuracy    <       0.00000001 Ry

     total magnetization       =    -0.00 Bohr mag/cell
     absolute magnetization    =     0.01 Bohr mag/cell

     iteration #111     ecut=    90.00 Ry     beta= 0.20
     Davidson diagonalization with overlap
     ethr =  8.17E-12,  avg # of iterations =  4.2

     negative rho (up, down):  1.602E-03 1.602E-03

     total cpu time spent up to now is     4901.0 secs

     total energy              =   -1895.39251035 Ry
     estimated scf accuracy    <       0.00000001 Ry

     total magnetization       =    -0.00 Bohr mag/cell
     absolute magnetization    =     0.01 Bohr mag/cell

     iteration #112     ecut=    90.00 Ry     beta= 0.20
     Davidson diagonalization with overlap
     ethr =  8.17E-12,  avg # of iterations =  4.4

     negative rho (up, down):  1.603E-03 1.601E-03

     total cpu time spent up to now is     4950.8 secs

     total energy              =   -1895.39251035 Ry
     estimated scf accuracy    <       0.00000001 Ry

     total magnetization       =    -0.00 Bohr mag/cell
     absolute magnetization    =     0.01 Bohr mag/cell

     iteration #113     ecut=    90.00 Ry     beta= 0.20
     Davidson diagonalization with overlap
     ethr =  8.17E-12,  avg # of iterations =  3.2

     negative rho (up, down):  1.602E-03 1.602E-03

     total cpu time spent up to now is     4995.0 secs

     total energy              =   -1895.39251034 Ry
     estimated scf accuracy    <       0.00000002 Ry

     total magnetization       =    -0.00 Bohr mag/cell
     absolute magnetization    =     0.01 Bohr mag/cell

     iteration #114     ecut=    90.00 Ry     beta= 0.20
     Davidson diagonalization with overlap
     ethr =  8.17E-12,  avg # of iterations =  2.1

     negative rho (up, down):  1.602E-03 1.601E-03

     total cpu time spent up to now is     5036.7 secs

     total energy              =   -1895.39251035 Ry
     estimated scf accuracy    <       0.00000001 Ry

     total magnetization       =    -0.00 Bohr mag/cell
     absolute magnetization    =     0.01 Bohr mag/cell

     iteration #115     ecut=    90.00 Ry     beta= 0.20
     Davidson diagonalization with overlap
     ethr =  8.17E-12,  avg # of iterations =  1.0

     negative rho (up, down):  1.603E-03 1.601E-03

     total cpu time spent up to now is     5073.7 secs

     total energy              =   -1895.39251034 Ry
     estimated scf accuracy    <       0.00000001 Ry

     total magnetization       =    -0.00 Bohr mag/cell
     absolute magnetization    =     0.01 Bohr mag/cell

     iteration #116     ecut=    90.00 Ry     beta= 0.20
     Davidson diagonalization with overlap
     ethr =  8.17E-12,  avg # of iterations =  3.1

     negative rho (up, down):  1.602E-03 1.601E-03

     total cpu time spent up to now is     5118.1 secs

     total energy              =   -1895.39251034 Ry
     estimated scf accuracy    <       0.00000001 Ry

     total magnetization       =    -0.00 Bohr mag/cell
     absolute magnetization    =     0.01 Bohr mag/cell

     iteration #117     ecut=    90.00 Ry     beta= 0.20
     Davidson diagonalization with overlap
     ethr =  8.17E-12,  avg # of iterations =  1.9

     negative rho (up, down):  1.602E-03 1.601E-03

     total cpu time spent up to now is     5158.0 secs

     total energy              =   -1895.39251034 Ry
     estimated scf accuracy    <       0.00000001 Ry

     total magnetization       =    -0.00 Bohr mag/cell
     absolute magnetization    =     0.01 Bohr mag/cell

     iteration #118     ecut=    90.00 Ry     beta= 0.20
     Davidson diagonalization with overlap
     ethr =  8.17E-12,  avg # of iterations =  1.2

     negative rho (up, down):  1.602E-03 1.602E-03

     total cpu time spent up to now is     5195.7 secs

     total energy              =   -1895.39251034 Ry
     estimated scf accuracy    <       0.00000001 Ry

     total magnetization       =    -0.00 Bohr mag/cell
     absolute magnetization    =     0.01 Bohr mag/cell

     iteration #119     ecut=    90.00 Ry     beta= 0.20
     Davidson diagonalization with overlap
     ethr =  8.17E-12,  avg # of iterations =  1.0

     negative rho (up, down):  1.602E-03 1.601E-03

     total cpu time spent up to now is     5232.7 secs

     total energy              =   -1895.39251035 Ry
     estimated scf accuracy    <       0.00000001 Ry

     total magnetization       =    -0.00 Bohr mag/cell
     absolute magnetization    =     0.01 Bohr mag/cell

     iteration #120     ecut=    90.00 Ry     beta= 0.20
     Davidson diagonalization with overlap
     ethr =  8.17E-12,  avg # of iterations =  2.1

     negative rho (up, down):  1.603E-03 1.601E-03

     Magnetic moment per site:
     atom:    1    charge:   11.7828    magn:    0.0024    constr:    0.0000
     atom:    2    charge:   15.3131    magn:   -0.0010    constr:    0.0000
     atom:    3    charge:   11.7828    magn:   -0.0004    constr:    0.0000
     atom:    4    charge:   15.3131    magn:   -0.0001    constr:    0.0000
     atom:    5    charge:   11.7828    magn:   -0.0034    constr:    0.0000
     atom:    6    charge:   15.3131    magn:    0.0004    constr:    0.0000
     atom:    7    charge:   11.7828    magn:   -0.0008    constr:    0.0000
     atom:    8    charge:   15.3131    magn:   -0.0001    constr:    0.0000

     total cpu time spent up to now is     5274.2 secs

     End of self-consistent calculation

     Number of k-points >= 100: set verbosity='high' to print the bands.

     the Fermi energy is    17.3534 ev

!    total energy              =   -1895.39251036 Ry
     estimated scf accuracy    <          9.6E-09 Ry
     smearing contrib. (-TS)   =      -0.01114792 Ry
     internal energy E=F+TS    =   -1895.38136244 Ry

     The total energy is F=E-TS. E is the sum of the following terms:
     one-electron contribution =    -969.89734936 Ry
     hartree contribution      =     552.74532780 Ry
     xc contribution           =    -220.25435360 Ry
     ewald contribution        =   -1257.97498728 Ry

     total magnetization       =    -0.00 Bohr mag/cell
     absolute magnetization    =     0.01 Bohr mag/cell

     convergence has been achieved in 120 iterations

     negative rho (up, down):  1.603E-03 1.601E-03

     Forces acting on atoms (cartesian axes, Ry/au):

     atom    1 type  1   force =     0.00037069    0.00014448   -0.00018533
     atom    2 type  2   force =     0.00058164   -0.00032548    0.00045043
     atom    3 type  1   force =     0.00037066    0.00014455   -0.00018531
     atom    4 type  2   force =     0.00058169   -0.00032541    0.00045053
     atom    5 type  1   force =    -0.00013068    0.00001179   -0.00002439
     atom    6 type  2   force =    -0.00082165    0.00016913   -0.00024083
     atom    7 type  1   force =    -0.00013063    0.00001181   -0.00002431
     atom    8 type  2   force =    -0.00082172    0.00016912   -0.00024077

     Total force =     0.001800     Total SCF correction =     0.000001


     Computing stress (Cartesian axis) and pressure


     negative rho (up, down):  1.603E-03 1.601E-03
          total   stress  (Ry/bohr**3)                   (kbar)     P=        0.13
   0.00000104   0.00001192  -0.00000004            0.15        1.75       -0.01
   0.00001192   0.00000076   0.00000004            1.75        0.11        0.01
  -0.00000004   0.00000004   0.00000080           -0.01        0.01        0.12

     Energy error            =      3.7E-01
     Gradient error          =      8.2E-04

     number of scf cycles    =  12
     number of bfgs steps    =   5

     energy   old            =   -1895.7600135191 Ry
     energy   new            =   -1895.3925103581 Ry

     CASE: energy  _new > energy  _old

     new trust radius        =       0.0241901346 bohr
     new conv_thr            =       0.0000000100 Ry


ATOMIC_POSITIONS (angstrom)
Cr            0.6236375570        2.0295469192       -1.1832442533
Co            2.7263604839        0.3828340366        2.3301056551
Cr            0.4176976191       -0.4421204474        2.2299951390
Co            1.9159989250        2.7306189838        1.0458582435
Cr            1.7039495680        0.4332406885        0.0091607344
Co           -0.4004907168        1.8883889751        1.0915876477
Cr            2.7877814194        2.6462811486        3.3225036779
Co           -0.6239562901       -0.4180834874        0.0334648499



     Writing output data file ./pwscf.save/
     NEW-OLD atomic charge density approx. for the potential

     Check: negative core charge=   -0.000010

     negative rho (up, down):  1.948E-02 1.948E-02
     Generating pointlists ...
     new r_m :   0.2014 (alat units)  1.7562 (a.u.) for type    1

     total cpu time spent up to now is     5299.4 secs

     Self-consistent Calculation

     iteration #  1     ecut=    90.00 Ry     beta= 0.20
     Davidson diagonalization with overlap
     c_bands:  5 eigenvalues not converged
     c_bands:  5 eigenvalues not converged
     c_bands:  3 eigenvalues not converged
     c_bands:  4 eigenvalues not converged
     c_bands:  2 eigenvalues not converged
     c_bands:  3 eigenvalues not converged
     c_bands:  4 eigenvalues not converged
     c_bands:  5 eigenvalues not converged
     c_bands:  5 eigenvalues not converged
     c_bands:  4 eigenvalues not converged
     c_bands:  1 eigenvalues not converged
     c_bands:  5 eigenvalues not converged
     c_bands:  4 eigenvalues not converged
     c_bands:  5 eigenvalues not converged
     c_bands:  5 eigenvalues not converged
     c_bands:  5 eigenvalues not converged
     c_bands:  5 eigenvalues not converged
     c_bands:  2 eigenvalues not converged
     c_bands:  3 eigenvalues not converged
     c_bands:  5 eigenvalues not converged
     c_bands:  1 eigenvalues not converged
     c_bands:  2 eigenvalues not converged
     c_bands:  3 eigenvalues not converged
     c_bands:  5 eigenvalues not converged
     c_bands:  4 eigenvalues not converged
     c_bands:  4 eigenvalues not converged
     ethr =  1.00E-06,  avg # of iterations = 26.6

     negative rho (up, down):  8.205E-03 8.199E-03

     total cpu time spent up to now is     5690.4 secs

     total energy              =   -1892.68957851 Ry
     estimated scf accuracy    <       9.87137727 Ry

     total magnetization       =    -0.00 Bohr mag/cell
     absolute magnetization    =     0.01 Bohr mag/cell

     iteration #  2     ecut=    90.00 Ry     beta= 0.20
     Davidson diagonalization with overlap
     ethr =  7.96E-03,  avg # of iterations =  3.9

     negative rho (up, down):  6.782E-03 6.775E-03

     total cpu time spent up to now is     5745.5 secs

     total energy              =   -1895.04330006 Ry
     estimated scf accuracy    <      34.61075133 Ry

     total magnetization       =    -0.00 Bohr mag/cell
     absolute magnetization    =     0.01 Bohr mag/cell

     iteration #  3     ecut=    90.00 Ry     beta= 0.20
     Davidson diagonalization with overlap
     ethr =  7.96E-03,  avg # of iterations =  1.1

     negative rho (up, down):  6.195E-03 6.189E-03

     total cpu time spent up to now is     5782.9 secs

     total energy              =   -1895.75078357 Ry
     estimated scf accuracy    <       7.74859095 Ry

     total magnetization       =    -0.00 Bohr mag/cell
     absolute magnetization    =     0.01 Bohr mag/cell

     iteration #  4     ecut=    90.00 Ry     beta= 0.20
     Davidson diagonalization with overlap
     ethr =  6.25E-03,  avg # of iterations =  1.0

     negative rho (up, down):  5.392E-03 5.385E-03

     total cpu time spent up to now is     5819.7 secs

     total energy              =   -1895.69340489 Ry
     estimated scf accuracy    <       4.76622242 Ry

     total magnetization       =    -0.00 Bohr mag/cell
     absolute magnetization    =     0.01 Bohr mag/cell

     iteration #  5     ecut=    90.00 Ry     beta= 0.20
     Davidson diagonalization with overlap
     ethr =  3.84E-03,  avg # of iterations =  1.0

     negative rho (up, down):  2.387E-03 2.381E-03

     total cpu time spent up to now is     5856.5 secs

     total energy              =   -1895.35756436 Ry
     estimated scf accuracy    <       2.38266778 Ry

     total magnetization       =    -0.00 Bohr mag/cell
     absolute magnetization    =     0.01 Bohr mag/cell

     iteration #  6     ecut=    90.00 Ry     beta= 0.20
     Davidson diagonalization with overlap
     ethr =  1.92E-03,  avg # of iterations =  2.2

     negative rho (up, down):  2.004E-03 1.998E-03

     total cpu time spent up to now is     5900.3 secs

     total energy              =   -1896.18760524 Ry
     estimated scf accuracy    <      13.42491441 Ry

     total magnetization       =    -0.00 Bohr mag/cell
     absolute magnetization    =     0.01 Bohr mag/cell

     iteration #  7     ecut=    90.00 Ry     beta= 0.20
     Davidson diagonalization with overlap
     ethr =  1.92E-03,  avg # of iterations =  1.1

     negative rho (up, down):  1.890E-03 1.884E-03

     total cpu time spent up to now is     5937.7 secs

     total energy              =   -1895.77480610 Ry
     estimated scf accuracy    <      24.16137544 Ry

     total magnetization       =    -0.01 Bohr mag/cell
     absolute magnetization    =     0.01 Bohr mag/cell

     iteration #  8     ecut=    90.00 Ry     beta= 0.20
     Davidson diagonalization with overlap
     ethr =  1.92E-03,  avg # of iterations =  1.0

     negative rho (up, down):  1.778E-03 1.773E-03

     total cpu time spent up to now is     5974.6 secs

     total energy              =   -1895.53579005 Ry
     estimated scf accuracy    <       8.06031646 Ry

     total magnetization       =    -0.00 Bohr mag/cell
     absolute magnetization    =     0.01 Bohr mag/cell

     iteration #  9     ecut=    90.00 Ry     beta= 0.20
     Davidson diagonalization with overlap
     ethr =  1.92E-03,  avg # of iterations =  1.0

     negative rho (up, down):  1.770E-03 1.765E-03

     total cpu time spent up to now is     6011.5 secs

     total energy              =   -1895.68924954 Ry
     estimated scf accuracy    <       0.62863369 Ry

     total magnetization       =    -0.00 Bohr mag/cell
     absolute magnetization    =     0.01 Bohr mag/cell

     iteration # 10     ecut=    90.00 Ry     beta= 0.20
     Davidson diagonalization with overlap
     ethr =  5.07E-04,  avg # of iterations =  1.1

     negative rho (up, down):  1.774E-03 1.770E-03

     total cpu time spent up to now is     6049.2 secs

     total energy              =   -1895.72958430 Ry
     estimated scf accuracy    <       0.04538247 Ry

     total magnetization       =    -0.00 Bohr mag/cell
     absolute magnetization    =     0.01 Bohr mag/cell

     iteration # 11     ecut=    90.00 Ry     beta= 0.20
     Davidson diagonalization with overlap
     ethr =  3.66E-05,  avg # of iterations =  6.3

     negative rho (up, down):  1.773E-03 1.768E-03

     total cpu time spent up to now is     6109.3 secs

     total energy              =   -1895.75227229 Ry
     estimated scf accuracy    <       0.31221427 Ry

     total magnetization       =    -0.00 Bohr mag/cell
     absolute magnetization    =     0.01 Bohr mag/cell

     iteration # 12     ecut=    90.00 Ry     beta= 0.20
     Davidson diagonalization with overlap
     ethr =  3.66E-05,  avg # of iterations =  1.1

     negative rho (up, down):  1.796E-03 1.792E-03

     total cpu time spent up to now is     6146.8 secs

     total energy              =   -1895.74333149 Ry
     estimated scf accuracy    <       0.37029185 Ry

     total magnetization       =    -0.00 Bohr mag/cell
     absolute magnetization    =     0.01 Bohr mag/cell

     iteration # 13     ecut=    90.00 Ry     beta= 0.20
     Davidson diagonalization with overlap
     ethr =  3.66E-05,  avg # of iterations =  1.6

     negative rho (up, down):  1.797E-03 1.792E-03

     total cpu time spent up to now is     6187.0 secs

     total energy              =   -1895.75144239 Ry
     estimated scf accuracy    <       0.02242969 Ry

     total magnetization       =    -0.00 Bohr mag/cell
     absolute magnetization    =     0.01 Bohr mag/cell

     iteration # 14     ecut=    90.00 Ry     beta= 0.20
     Davidson diagonalization with overlap
     ethr =  1.81E-05,  avg # of iterations =  1.6

     negative rho (up, down):  1.803E-03 1.799E-03

     total cpu time spent up to now is     6225.8 secs

     total energy              =   -1895.75398759 Ry
     estimated scf accuracy    <       0.03374408 Ry

     total magnetization       =    -0.00 Bohr mag/cell
     absolute magnetization    =     0.01 Bohr mag/cell

     iteration # 15     ecut=    90.00 Ry     beta= 0.20
     Davidson diagonalization with overlap
     ethr =  1.81E-05,  avg # of iterations =  1.0

     negative rho (up, down):  1.813E-03 1.810E-03

     total cpu time spent up to now is     6263.0 secs

     total energy              =   -1895.75412768 Ry
     estimated scf accuracy    <       0.01592751 Ry

     total magnetization       =    -0.00 Bohr mag/cell
     absolute magnetization    =     0.01 Bohr mag/cell

     iteration # 16     ecut=    90.00 Ry     beta= 0.20
     Davidson diagonalization with overlap
     ethr =  1.28E-05,  avg # of iterations =  1.5

     negative rho (up, down):  1.815E-03 1.811E-03

     total cpu time spent up to now is     6301.5 secs

     total energy              =   -1895.75491465 Ry
     estimated scf accuracy    <       0.00862864 Ry

     total magnetization       =    -0.00 Bohr mag/cell
     absolute magnetization    =     0.01 Bohr mag/cell

     iteration # 17     ecut=    90.00 Ry     beta= 0.20
     Davidson diagonalization with overlap
     ethr =  6.96E-06,  avg # of iterations =  1.5

     negative rho (up, down):  1.817E-03 1.813E-03

     total cpu time spent up to now is     6340.3 secs

     total energy              =   -1895.75533666 Ry
     estimated scf accuracy    <       0.00170018 Ry

     total magnetization       =    -0.00 Bohr mag/cell
     absolute magnetization    =     0.01 Bohr mag/cell

     iteration # 18     ecut=    90.00 Ry     beta= 0.20
     Davidson diagonalization with overlap
     ethr =  1.37E-06,  avg # of iterations =  3.2

     negative rho (up, down):  1.818E-03 1.814E-03

     total cpu time spent up to now is     6384.9 secs

     total energy              =   -1895.75540384 Ry
     estimated scf accuracy    <       0.00075073 Ry

     total magnetization       =    -0.00 Bohr mag/cell
     absolute magnetization    =     0.01 Bohr mag/cell

     iteration # 19     ecut=    90.00 Ry     beta= 0.20
     Davidson diagonalization with overlap
     ethr =  6.05E-07,  avg # of iterations =  1.6

     negative rho (up, down):  1.818E-03 1.815E-03

     total cpu time spent up to now is     6424.0 secs

     total energy              =   -1895.75544042 Ry
     estimated scf accuracy    <       0.00020414 Ry

     total magnetization       =    -0.00 Bohr mag/cell
     absolute magnetization    =     0.01 Bohr mag/cell

     iteration # 20     ecut=    90.00 Ry     beta= 0.20
     Davidson diagonalization with overlap
     ethr =  1.65E-07,  avg # of iterations =  2.6

     negative rho (up, down):  1.819E-03 1.815E-03

     total cpu time spent up to now is     6466.4 secs

     total energy              =   -1895.75544345 Ry
     estimated scf accuracy    <       0.00004824 Ry

     total magnetization       =    -0.00 Bohr mag/cell
     absolute magnetization    =     0.01 Bohr mag/cell

     iteration # 21     ecut=    90.00 Ry     beta= 0.20
     Davidson diagonalization with overlap
     ethr =  3.89E-08,  avg # of iterations =  3.3

     negative rho (up, down):  1.818E-03 1.815E-03

     total cpu time spent up to now is     6512.2 secs

     total energy              =   -1895.75544350 Ry
     estimated scf accuracy    <       0.00010709 Ry

     total magnetization       =    -0.00 Bohr mag/cell
     absolute magnetization    =     0.01 Bohr mag/cell

     iteration # 22     ecut=    90.00 Ry     beta= 0.20
     Davidson diagonalization with overlap
     ethr =  3.89E-08,  avg # of iterations =  1.7

     negative rho (up, down):  1.818E-03 1.815E-03

     total cpu time spent up to now is     6552.6 secs

     total energy              =   -1895.75544500 Ry
     estimated scf accuracy    <       0.00007222 Ry

     total magnetization       =    -0.00 Bohr mag/cell
     absolute magnetization    =     0.01 Bohr mag/cell

     iteration # 23     ecut=    90.00 Ry     beta= 0.20
     Davidson diagonalization with overlap
     ethr =  3.89E-08,  avg # of iterations =  1.1

     negative rho (up, down):  1.818E-03 1.815E-03

     total cpu time spent up to now is     6590.1 secs

     total energy              =   -1895.75544508 Ry
     estimated scf accuracy    <       0.00006279 Ry

     total magnetization       =    -0.00 Bohr mag/cell
     absolute magnetization    =     0.01 Bohr mag/cell

     iteration # 24     ecut=    90.00 Ry     beta= 0.20
     Davidson diagonalization with overlap
     ethr =  3.89E-08,  avg # of iterations =  1.0

     negative rho (up, down):  1.818E-03 1.815E-03

     total cpu time spent up to now is     6627.2 secs

     total energy              =   -1895.75544481 Ry
     estimated scf accuracy    <       0.00003104 Ry

     total magnetization       =    -0.00 Bohr mag/cell
     absolute magnetization    =     0.01 Bohr mag/cell

     iteration # 25     ecut=    90.00 Ry     beta= 0.20
     Davidson diagonalization with overlap
     ethr =  2.50E-08,  avg # of iterations =  1.0

     negative rho (up, down):  1.818E-03 1.815E-03

     total cpu time spent up to now is     6664.2 secs

     total energy              =   -1895.75544803 Ry
     estimated scf accuracy    <       0.00000907 Ry

     total magnetization       =    -0.00 Bohr mag/cell
     absolute magnetization    =     0.01 Bohr mag/cell

     iteration # 26     ecut=    90.00 Ry     beta= 0.20
     Davidson diagonalization with overlap
     ethr =  7.31E-09,  avg # of iterations =  1.0

     negative rho (up, down):  1.818E-03 1.815E-03

     total cpu time spent up to now is     6701.5 secs

     total energy              =   -1895.75544732 Ry
     estimated scf accuracy    <       0.00000602 Ry

     total magnetization       =     0.00 Bohr mag/cell
     absolute magnetization    =     0.01 Bohr mag/cell

     iteration # 27     ecut=    90.00 Ry     beta= 0.20
     Davidson diagonalization with overlap
     ethr =  4.85E-09,  avg # of iterations =  1.1

     negative rho (up, down):  1.818E-03 1.815E-03

     total cpu time spent up to now is     6739.3 secs

     total energy              =   -1895.75544812 Ry
     estimated scf accuracy    <       0.00001193 Ry

     total magnetization       =    -0.00 Bohr mag/cell
     absolute magnetization    =     0.01 Bohr mag/cell

     iteration # 28     ecut=    90.00 Ry     beta= 0.20
     Davidson diagonalization with overlap
     ethr =  4.85E-09,  avg # of iterations =  1.0

     negative rho (up, down):  1.818E-03 1.815E-03

     total cpu time spent up to now is     6776.3 secs

     total energy              =   -1895.75544813 Ry
     estimated scf accuracy    <       0.00000858 Ry

     total magnetization       =     0.00 Bohr mag/cell
     absolute magnetization    =     0.01 Bohr mag/cell

     iteration # 29     ecut=    90.00 Ry     beta= 0.20
     Davidson diagonalization with overlap
     ethr =  4.85E-09,  avg # of iterations =  1.0

     negative rho (up, down):  1.818E-03 1.815E-03

     total cpu time spent up to now is     6813.4 secs

     total energy              =   -1895.75544861 Ry
     estimated scf accuracy    <       0.00000560 Ry

     total magnetization       =     0.00 Bohr mag/cell
     absolute magnetization    =     0.01 Bohr mag/cell

     iteration # 30     ecut=    90.00 Ry     beta= 0.20
     Davidson diagonalization with overlap
     ethr =  4.51E-09,  avg # of iterations =  1.0

     negative rho (up, down):  1.818E-03 1.815E-03

     total cpu time spent up to now is     6850.4 secs

     total energy              =   -1895.75544891 Ry
     estimated scf accuracy    <       0.00000025 Ry

     total magnetization       =     0.00 Bohr mag/cell
     absolute magnetization    =     0.01 Bohr mag/cell

     iteration # 31     ecut=    90.00 Ry     beta= 0.20
     Davidson diagonalization with overlap
     ethr =  2.02E-10,  avg # of iterations =  2.1

     negative rho (up, down):  1.818E-03 1.815E-03

     total cpu time spent up to now is     6892.2 secs

     total energy              =   -1895.75544894 Ry
     estimated scf accuracy    <       0.00000012 Ry

     total magnetization       =     0.00 Bohr mag/cell
     absolute magnetization    =     0.01 Bohr mag/cell

     iteration # 32     ecut=    90.00 Ry     beta= 0.20
     Davidson diagonalization with overlap
     ethr =  9.50E-11,  avg # of iterations =  3.9

     negative rho (up, down):  1.818E-03 1.815E-03

     total cpu time spent up to now is     6941.0 secs

     total energy              =   -1895.75544896 Ry
     estimated scf accuracy    <       0.00000084 Ry

     total magnetization       =     0.00 Bohr mag/cell
     absolute magnetization    =     0.01 Bohr mag/cell

     iteration # 33     ecut=    90.00 Ry     beta= 0.20
     Davidson diagonalization with overlap
     ethr =  9.50E-11,  avg # of iterations =  2.1

     negative rho (up, down):  1.818E-03 1.815E-03

     total cpu time spent up to now is     6982.9 secs

     total energy              =   -1895.75544897 Ry
     estimated scf accuracy    <       0.00000010 Ry

     total magnetization       =     0.00 Bohr mag/cell
     absolute magnetization    =     0.01 Bohr mag/cell

     iteration # 34     ecut=    90.00 Ry     beta= 0.20
     Davidson diagonalization with overlap
     ethr =  7.99E-11,  avg # of iterations =  1.8

     negative rho (up, down):  1.818E-03 1.815E-03

     total cpu time spent up to now is     7024.1 secs

     total energy              =   -1895.75544898 Ry
     estimated scf accuracy    <       0.00000015 Ry

     total magnetization       =     0.00 Bohr mag/cell
     absolute magnetization    =     0.01 Bohr mag/cell

     iteration # 35     ecut=    90.00 Ry     beta= 0.20
     Davidson diagonalization with overlap
     ethr =  7.99E-11,  avg # of iterations =  1.1

     negative rho (up, down):  1.818E-03 1.815E-03

     total cpu time spent up to now is     7061.7 secs

     total energy              =   -1895.75544900 Ry
     estimated scf accuracy    <       0.00000016 Ry

     total magnetization       =     0.00 Bohr mag/cell
     absolute magnetization    =     0.01 Bohr mag/cell

     iteration # 36     ecut=    90.00 Ry     beta= 0.20
     Davidson diagonalization with overlap
     ethr =  7.99E-11,  avg # of iterations =  1.0

     negative rho (up, down):  1.818E-03 1.815E-03

     total cpu time spent up to now is     7098.8 secs

     total energy              =   -1895.75544900 Ry
     estimated scf accuracy    <       0.00000003 Ry

     total magnetization       =     0.00 Bohr mag/cell
     absolute magnetization    =     0.01 Bohr mag/cell

     iteration # 37     ecut=    90.00 Ry     beta= 0.20
     Davidson diagonalization with overlap
     ethr =  2.25E-11,  avg # of iterations =  1.1

     negative rho (up, down):  1.818E-03 1.815E-03

     total cpu time spent up to now is     7136.4 secs

     total energy              =   -1895.75544900 Ry
     estimated scf accuracy    <       0.00000004 Ry

     total magnetization       =     0.00 Bohr mag/cell
     absolute magnetization    =     0.01 Bohr mag/cell

     iteration # 38     ecut=    90.00 Ry     beta= 0.20
     Davidson diagonalization with overlap
     ethr =  2.25E-11,  avg # of iterations =  1.0

     negative rho (up, down):  1.818E-03 1.815E-03

     total cpu time spent up to now is     7173.4 secs

     total energy              =   -1895.75544901 Ry
     estimated scf accuracy    <       0.00000003 Ry

     total magnetization       =     0.00 Bohr mag/cell
     absolute magnetization    =     0.01 Bohr mag/cell

     iteration # 39     ecut=    90.00 Ry     beta= 0.20
     Davidson diagonalization with overlap
     ethr =  2.25E-11,  avg # of iterations =  1.0

     negative rho (up, down):  1.818E-03 1.815E-03

     total cpu time spent up to now is     7210.5 secs

     total energy              =   -1895.75544901 Ry
     estimated scf accuracy    <       0.00000003 Ry

     total magnetization       =     0.00 Bohr mag/cell
     absolute magnetization    =     0.01 Bohr mag/cell

     iteration # 40     ecut=    90.00 Ry     beta= 0.20
     Davidson diagonalization with overlap
     ethr =  2.25E-11,  avg # of iterations =  1.0

     negative rho (up, down):  1.818E-03 1.815E-03

     total cpu time spent up to now is     7247.4 secs

     total energy              =   -1895.75544901 Ry
     estimated scf accuracy    <       0.00000003 Ry

     total magnetization       =     0.00 Bohr mag/cell
     absolute magnetization    =     0.01 Bohr mag/cell

     iteration # 41     ecut=    90.00 Ry     beta= 0.20
     Davidson diagonalization with overlap
     ethr =  2.25E-11,  avg # of iterations =  1.0

     negative rho (up, down):  1.818E-03 1.815E-03

     total cpu time spent up to now is     7284.5 secs

     total energy              =   -1895.75544897 Ry
     estimated scf accuracy    <       0.00000003 Ry

     total magnetization       =     0.00 Bohr mag/cell
     absolute magnetization    =     0.01 Bohr mag/cell

     iteration # 42     ecut=    90.00 Ry     beta= 0.20
     Davidson diagonalization with overlap
     ethr =  2.25E-11,  avg # of iterations =  2.0

     negative rho (up, down):  1.818E-03 1.815E-03

     total cpu time spent up to now is     7328.9 secs

     total energy              =   -1895.75544897 Ry
     estimated scf accuracy    <       0.00000003 Ry

     total magnetization       =     0.00 Bohr mag/cell
     absolute magnetization    =     0.01 Bohr mag/cell

     iteration # 43     ecut=    90.00 Ry     beta= 0.20
     Davidson diagonalization with overlap
     ethr =  2.25E-11,  avg # of iterations =  1.8

     negative rho (up, down):  1.818E-03 1.815E-03

     total cpu time spent up to now is     7370.7 secs

     total energy              =   -1895.75544896 Ry
     estimated scf accuracy    <       0.00000003 Ry

     total magnetization       =     0.00 Bohr mag/cell
     absolute magnetization    =     0.01 Bohr mag/cell

     iteration # 44     ecut=    90.00 Ry     beta= 0.20
     Davidson diagonalization with overlap
     ethr =  2.25E-11,  avg # of iterations =  1.9

     negative rho (up, down):  1.818E-03 1.815E-03

     total cpu time spent up to now is     7413.0 secs

     total energy              =   -1895.75544886 Ry
     estimated scf accuracy    <       0.00000005 Ry

     total magnetization       =    -0.00 Bohr mag/cell
     absolute magnetization    =     0.01 Bohr mag/cell

     iteration # 45     ecut=    90.00 Ry     beta= 0.20
     Davidson diagonalization with overlap
     ethr =  2.25E-11,  avg # of iterations =  4.9

     negative rho (up, down):  1.818E-03 1.815E-03

     total cpu time spent up to now is     7480.6 secs

     total energy              =   -1895.75544892 Ry
     estimated scf accuracy    <       0.00000001 Ry

     total magnetization       =    -0.00 Bohr mag/cell
     absolute magnetization    =     0.01 Bohr mag/cell

     iteration # 46     ecut=    90.00 Ry     beta= 0.20
     Davidson diagonalization with overlap
     ethr =  1.11E-11,  avg # of iterations =  2.9

     negative rho (up, down):  1.818E-03 1.815E-03

     total cpu time spent up to now is     7529.3 secs

     total energy              =   -1895.75544892 Ry
     estimated scf accuracy    <       0.00000004 Ry

     total magnetization       =    -0.00 Bohr mag/cell
     absolute magnetization    =     0.01 Bohr mag/cell

     iteration # 47     ecut=    90.00 Ry     beta= 0.20
     Davidson diagonalization with overlap
     ethr =  1.11E-11,  avg # of iterations =  3.2

     negative rho (up, down):  1.818E-03 1.816E-03

     total cpu time spent up to now is     7578.0 secs

     total energy              =   -1895.75544893 Ry
     estimated scf accuracy    <       0.00000001 Ry

     total magnetization       =    -0.00 Bohr mag/cell
     absolute magnetization    =     0.01 Bohr mag/cell

     iteration # 48     ecut=    90.00 Ry     beta= 0.20
     Davidson diagonalization with overlap
     ethr =  9.45E-12,  avg # of iterations =  1.9

     negative rho (up, down):  1.818E-03 1.816E-03

     total cpu time spent up to now is     7619.8 secs

     total energy              =   -1895.75544893 Ry
     estimated scf accuracy    <       0.00000001 Ry

     total magnetization       =    -0.00 Bohr mag/cell
     absolute magnetization    =     0.01 Bohr mag/cell

     iteration # 49     ecut=    90.00 Ry     beta= 0.20
     Davidson diagonalization with overlap
     ethr =  8.64E-12,  avg # of iterations =  1.1

     negative rho (up, down):  1.817E-03 1.816E-03

     Magnetic moment per site:
     atom:    1    charge:   11.6694    magn:    0.0010    constr:    0.0000
     atom:    2    charge:   15.1643    magn:   -0.0011    constr:    0.0000
     atom:    3    charge:   11.5844    magn:   -0.0000    constr:    0.0000
     atom:    4    charge:   15.1793    magn:   -0.0003    constr:    0.0000
     atom:    5    charge:   11.6021    magn:   -0.0026    constr:    0.0000
     atom:    6    charge:   15.1426    magn:    0.0001    constr:    0.0000
     atom:    7    charge:   11.6259    magn:   -0.0000    constr:    0.0000
     atom:    8    charge:   15.1627    magn:   -0.0002    constr:    0.0000

     total cpu time spent up to now is     7657.1 secs

     End of self-consistent calculation

     Number of k-points >= 100: set verbosity='high' to print the bands.

     the Fermi energy is    16.9487 ev

!    total energy              =   -1895.75544892 Ry
     estimated scf accuracy    <          8.7E-09 Ry
     smearing contrib. (-TS)   =      -0.00810730 Ry
     internal energy E=F+TS    =   -1895.74734162 Ry

     The total energy is F=E-TS. E is the sum of the following terms:
     one-electron contribution =    -945.18333043 Ry
     hartree contribution      =     540.00421067 Ry
     xc contribution           =    -219.75833779 Ry
     ewald contribution        =   -1270.80988407 Ry

     total magnetization       =    -0.00 Bohr mag/cell
     absolute magnetization    =     0.01 Bohr mag/cell

     convergence has been achieved in  49 iterations

     negative rho (up, down):  1.817E-03 1.816E-03

     Forces acting on atoms (cartesian axes, Ry/au):

     atom    1 type  1   force =     0.00212035    0.00053219   -0.00197209
     atom    2 type  2   force =     0.00236836    0.00087734   -0.00180316
     atom    3 type  1   force =    -0.00018726   -0.00375988    0.00218323
     atom    4 type  2   force =     0.00082940    0.00490943    0.00036404
     atom    5 type  1   force =    -0.00541146   -0.00078447    0.00028272
     atom    6 type  2   force =     0.00399827   -0.00252566    0.00068247
     atom    7 type  1   force =     0.00074968    0.00115506    0.00203057
     atom    8 type  2   force =    -0.00446734   -0.00040401   -0.00176778

     Total force =     0.012010     Total SCF correction =     0.000274


     Computing stress (Cartesian axis) and pressure


     negative rho (up, down):  1.817E-03 1.816E-03
          total   stress  (Ry/bohr**3)                   (kbar)     P=     -177.09
  -0.00095310   0.00002463  -0.00000331         -140.21        3.62       -0.49
   0.00002463  -0.00142606  -0.00008599            3.62     -209.78      -12.65
  -0.00000331  -0.00008599  -0.00123232           -0.49      -12.65     -181.28

     Energy error            =      5.0E-03
     Gradient error          =      5.4E-03

     number of scf cycles    =  15
     number of bfgs steps    =   7

     energy   old            =   -1895.7604033413 Ry
     energy   new            =   -1895.7554489226 Ry

     CASE: energy  _new > energy  _old


 %%%%%%%%%%%%%%%%%%%%%%%%%%%%%%%%%%%%%%%%%%%%%%%%%%%%%%%%%%%%%%%%%%%%%%%%%%%%%%
     Error in routine bfgs (1):
     dE0s is positive which should never happen
 %%%%%%%%%%%%%%%%%%%%%%%%%%%%%%%%%%%%%%%%%%%%%%%%%%%%%%%%%%%%%%%%%%%%%%%%%%%%%%

     stopping ...
Abort(1) on node 0 (rank 0 in comm 0): application called MPI_Abort(MPI_COMM_WORLD, 1) - process 0
