 # File generated with Atomsk by kevin on 2022-03-20 17:47:57
 
           8  atoms
           2  atom types
 
      0.000000000000       4.614400000000  xlo xhi
      0.000000000000       4.637472000000  ylo yhi
      0.000000000000       4.614400000000  zlo zhi
 
Masses
 
            1   58.93319500             # Co
            2   51.99610000             # Cr
 
Atoms # atomic
 
         1    1       -0.008795416881       0.004794761957       0.004448812519
         2    2        2.312685547450       2.327054132170       2.306251391055
         3    1       -0.008795416881       2.323530761957       2.311648812519
         4    2        2.312685547450       0.008318132170      -0.000948608945
         5    1        2.298404583119       2.323530761957       0.004448812519
         6    2       -0.008795416881       0.004794761957       2.311648812519
         7    1        2.298404583119       0.004794761957       2.311648812519
         8    2       -0.008795416881       2.323530761957       0.004448812519
