 # File generated with Atomsk by kevin on 2022-03-20 17:47:58
 
           8  atoms
           2  atom types
 
      0.000000000000       4.614400000000  xlo xhi
      0.000000000000       4.614400000000  ylo yhi
      0.000000000000       4.614400000000  zlo zhi
      0.000000000000       0.023072000000       0.000000000000  xy xz yz
 
Masses
 
            1   58.93319500             # Co
            2   51.99610000             # Cr
 
Atoms # atomic
 
         1    1       -0.009161338731      -0.000066941032       0.004366567188
         2    2        2.318893909908       2.302779064198       2.300922322491
         3    1        0.002374661269       2.307133058968       2.311566567188
         4    2        2.307357909908      -0.004420935802      -0.006277677509
         5    1        2.298038661269       2.307133058968       0.004366567188
         6    2        0.002374661269      -0.000066941032       2.311566567188
         7    1        2.309574661269      -0.000066941032       2.311566567188
         8    2       -0.009161338731       2.307133058968       0.004366567188
