
     Program PWSCF v.6.7MaX starts on 22Mar2022 at 10:47:30 

     This program is part of the open-source Quantum ESPRESSO suite
     for quantum simulation of materials; please cite
         "P. Giannozzi et al., J. Phys.:Condens. Matter 21 395502 (2009);
         "P. Giannozzi et al., J. Phys.:Condens. Matter 29 465901 (2017);
          URL http://www.quantum-espresso.org", 
     in publications or presentations arising from this work. More details at
     http://www.quantum-espresso.org/quote

     Parallel version (MPI), running on    24 processors

     MPI processes distributed on     1 nodes
     R & G space division:  proc/nbgrp/npool/nimage =      24
     Reading input from /home/kevin/QE_CoCrFeMnNi/CoCrFeMnNi/Opt/binary/Opt-B1-CoCr/Mix/elastic/Chg_5-B1-CoCr.in

     Current dimensions of program PWSCF are:
     Max number of different atomic species (ntypx) = 10
     Max number of k-points (npk) =  40000
     Max angular momentum in pseudopotentials (lmaxx) =  3

     Subspace diagonalization in iterative solution of the eigenvalue problem:
     a serial algorithm will be used


     Parallelization info
     --------------------
     sticks:   dense  smooth     PW     G-vecs:    dense   smooth      PW
     Min         272      91     25                16559     3190     481
     Max         275      92     26                16561     3193     483
     Sum        6541    2185    613               397439    76581   11553



     bravais-lattice index     =            0
     lattice parameter (alat)  =       8.7200  a.u.
     unit-cell volume          =     663.0440 (a.u.)^3
     number of atoms/cell      =            8
     number of atomic types    =            2
     number of electrons       =       124.00
     number of Kohn-Sham states=           74
     kinetic-energy cutoff     =      90.0000  Ry
     charge density cutoff     =    1080.0000  Ry
     scf convergence threshold =      1.0E-08
     mixing beta               =       0.2000
     number of iterations used =            8  plain     mixing
     energy convergence thresh.=      1.0E-05
     force convergence thresh. =      1.0E-04
     Exchange-correlation= SLA  PW   PBE  PBE
                           (   1   4   3   4   0   0   0)
     nstep                     =          100


     celldm(1)=   8.719952  celldm(2)=   0.000000  celldm(3)=   0.000000
     celldm(4)=   0.000000  celldm(5)=   0.000000  celldm(6)=   0.000000

     crystal axes: (cart. coord. in units of alat)
               a(1) = (   1.000000   0.000000   0.000000 )  
               a(2) = (   0.000000   1.000000   0.000000 )  
               a(3) = (   0.005000   0.000000   1.000000 )  

     reciprocal axes: (cart. coord. in units 2 pi/alat)
               b(1) = (  1.000000  0.000000 -0.005000 )  
               b(2) = (  0.000000  1.000000  0.000000 )  
               b(3) = (  0.000000  0.000000  1.000000 )  


     PseudoPot. # 1 for Cr read from file:
     /opt/QEpot/SSSP_efficiency_pseudos/cr_pbe_v1.5.uspp.F.UPF
     MD5 check sum: 0d52af634a40206e4dee301ad30da4bf
     Pseudo is Ultrasoft + core correction, Zval = 14.0
     Generated by new atomic code, or converted to UPF format
     Using radial grid of  857 points,  6 beta functions with: 
                l(1) =   0
                l(2) =   0
                l(3) =   1
                l(4) =   1
                l(5) =   2
                l(6) =   2
     Q(r) pseudized with  8 coefficients,  rinner =    0.950   0.950   0.950
                                                       0.950   0.950

     PseudoPot. # 2 for Co read from file:
     /opt/QEpot/SSSP_efficiency_pseudos/Co_pbe_v1.2.uspp.F.UPF
     MD5 check sum: 5f91765df6ddd3222702df6e7b74a16d
     Pseudo is Ultrasoft + core correction, Zval = 17.0
     Generated by new atomic code, or converted to UPF format
     Using radial grid of  863 points,  6 beta functions with: 
                l(1) =   0
                l(2) =   0
                l(3) =   1
                l(4) =   1
                l(5) =   2
                l(6) =   2
     Q(r) pseudized with  8 coefficients,  rinner =    1.200   1.200   1.200
                                                       1.200   1.200

     atomic species   valence    mass     pseudopotential
        Cr            14.00    51.99610     Cr( 1.00)
        Co            17.00    58.93300     Co( 1.00)

     Starting magnetic structure 
     atomic species   magnetization
        Cr           0.000
        Co           0.000

     No symmetry found



   Cartesian axes

     site n.     atom                  positions (alat units)
         1           Cr  tau(   1) = (   0.1325301   0.4391186  -0.2589177  )
         2           Co  tau(   2) = (   0.5932735   0.0841329   0.5054498  )
         3           Cr  tau(   3) = (   0.0948890  -0.0958242   0.4824736  )
         4           Co  tau(   4) = (   0.4117418   0.5912984   0.2290070  )
         5           Cr  tau(   5) = (   0.3688785   0.0952229   0.0015479  )
         6           Co  tau(   6) = (  -0.0902107   0.4088841   0.2339669  )
         7           Cr  tau(   7) = (   0.6058426   0.5740055   0.7227503  )
         8           Co  tau(   8) = (  -0.1345301  -0.0919841   0.0073306  )

     number of k points=   112  Gaussian smearing, width (Ry)=  0.0100

     Number of k-points >= 100: set verbosity='high' to print them.

     Dense  grid:   397439 G-vectors     FFT dimensions: (  96,  96,  96)

     Smooth grid:    76581 G-vectors     FFT dimensions: (  54,  54,  54)

     Estimated max dynamical RAM per process >     174.71 MB

     Estimated total dynamical RAM >       4.09 GB

     Check: negative core charge=   -0.000010
     Generating pointlists ...
     new r_m :   0.2012 (alat units)  1.7542 (a.u.) for type    1
     new r_m :   0.2114 (alat units)  1.8430 (a.u.) for type    2

     Initial potential from superposition of free atoms

     starting charge  115.99991, renormalised to  124.00000

     negative rho (up, down):  1.714E-03 1.714E-03
     Starting wfcs are   92 randomized atomic wfcs

     total cpu time spent up to now is       20.9 secs

     Self-consistent Calculation

     iteration #  1     ecut=    90.00 Ry     beta= 0.20
     Davidson diagonalization with overlap
     ethr =  1.00E-02,  avg # of iterations =  3.0

     negative rho (up, down):  1.046E-03 1.046E-03

     total cpu time spent up to now is       86.6 secs

     total energy              =   -1865.85508687 Ry
     estimated scf accuracy    <     137.03281601 Ry

     total magnetization       =     0.00 Bohr mag/cell
     absolute magnetization    =     0.01 Bohr mag/cell

     iteration #  2     ecut=    90.00 Ry     beta= 0.20
     Davidson diagonalization with overlap
     ethr =  1.00E-02,  avg # of iterations =  5.0

     negative rho (up, down):  1.745E-03 1.745E-03

     total cpu time spent up to now is      167.9 secs

     total energy              =   -1895.71570704 Ry
     estimated scf accuracy    <     101.72788981 Ry

     total magnetization       =     0.00 Bohr mag/cell
     absolute magnetization    =     0.00 Bohr mag/cell

     iteration #  3     ecut=    90.00 Ry     beta= 0.20
     Davidson diagonalization with overlap
     ethr =  1.00E-02,  avg # of iterations =  3.2

     negative rho (up, down):  3.846E-03 3.846E-03

     total cpu time spent up to now is      222.1 secs

     total energy              =   -1886.91343573 Ry
     estimated scf accuracy    <      30.59829282 Ry

     total magnetization       =     0.00 Bohr mag/cell
     absolute magnetization    =     0.00 Bohr mag/cell

     iteration #  4     ecut=    90.00 Ry     beta= 0.20
     Davidson diagonalization with overlap
     ethr =  1.00E-02,  avg # of iterations =  5.5

     negative rho (up, down):  1.996E-03 1.997E-03

     total cpu time spent up to now is      302.3 secs

     total energy              =   -1886.71806931 Ry
     estimated scf accuracy    <     187.83920729 Ry

     total magnetization       =    -0.00 Bohr mag/cell
     absolute magnetization    =     0.01 Bohr mag/cell

     iteration #  5     ecut=    90.00 Ry     beta= 0.20
     Davidson diagonalization with overlap
     ethr =  1.00E-02,  avg # of iterations =  5.8

     negative rho (up, down):  1.960E-03 1.960E-03

     total cpu time spent up to now is      370.2 secs

     total energy              =   -1896.13117716 Ry
     estimated scf accuracy    <       6.27598905 Ry

     total magnetization       =     0.01 Bohr mag/cell
     absolute magnetization    =     0.01 Bohr mag/cell

     iteration #  6     ecut=    90.00 Ry     beta= 0.20
     Davidson diagonalization with overlap
     ethr =  5.06E-03,  avg # of iterations =  1.0

     negative rho (up, down):  1.958E-03 1.958E-03

     total cpu time spent up to now is      407.4 secs

     total energy              =   -1895.88656659 Ry
     estimated scf accuracy    <       7.06377407 Ry

     total magnetization       =     0.00 Bohr mag/cell
     absolute magnetization    =     0.00 Bohr mag/cell

     iteration #  7     ecut=    90.00 Ry     beta= 0.20
     Davidson diagonalization with overlap
     ethr =  5.06E-03,  avg # of iterations =  1.0

     negative rho (up, down):  1.961E-03 1.962E-03

     total cpu time spent up to now is      444.4 secs

     total energy              =   -1895.86160837 Ry
     estimated scf accuracy    <       3.38986103 Ry

     total magnetization       =     0.00 Bohr mag/cell
     absolute magnetization    =     0.00 Bohr mag/cell

     iteration #  8     ecut=    90.00 Ry     beta= 0.20
     Davidson diagonalization with overlap
     ethr =  2.73E-03,  avg # of iterations =  1.1

     negative rho (up, down):  1.982E-03 1.982E-03

     total cpu time spent up to now is      481.6 secs

     total energy              =   -1895.70910952 Ry
     estimated scf accuracy    <       2.38000080 Ry

     total magnetization       =    -0.00 Bohr mag/cell
     absolute magnetization    =     0.00 Bohr mag/cell

     iteration #  9     ecut=    90.00 Ry     beta= 0.20
     Davidson diagonalization with overlap
     ethr =  1.92E-03,  avg # of iterations =  1.0

     negative rho (up, down):  1.973E-03 1.973E-03

     total cpu time spent up to now is      518.7 secs

     total energy              =   -1895.73900445 Ry
     estimated scf accuracy    <       0.35192417 Ry

     total magnetization       =    -0.00 Bohr mag/cell
     absolute magnetization    =     0.00 Bohr mag/cell

     iteration # 10     ecut=    90.00 Ry     beta= 0.20
     Davidson diagonalization with overlap
     ethr =  2.84E-04,  avg # of iterations =  2.0

     negative rho (up, down):  1.929E-03 1.929E-03

     total cpu time spent up to now is      561.0 secs

     total energy              =   -1895.75577333 Ry
     estimated scf accuracy    <       0.10303955 Ry

     total magnetization       =     0.00 Bohr mag/cell
     absolute magnetization    =     0.00 Bohr mag/cell

     iteration # 11     ecut=    90.00 Ry     beta= 0.20
     Davidson diagonalization with overlap
     ethr =  8.31E-05,  avg # of iterations =  1.9

     negative rho (up, down):  1.907E-03 1.907E-03

     total cpu time spent up to now is      602.5 secs

     total energy              =   -1895.75803769 Ry
     estimated scf accuracy    <       0.24941490 Ry

     total magnetization       =    -0.00 Bohr mag/cell
     absolute magnetization    =     0.00 Bohr mag/cell

     iteration # 12     ecut=    90.00 Ry     beta= 0.20
     Davidson diagonalization with overlap
     ethr =  8.31E-05,  avg # of iterations =  1.0

     negative rho (up, down):  1.886E-03 1.886E-03

     total cpu time spent up to now is      639.6 secs

     total energy              =   -1895.73820608 Ry
     estimated scf accuracy    <       0.18332401 Ry

     total magnetization       =    -0.00 Bohr mag/cell
     absolute magnetization    =     0.00 Bohr mag/cell

     iteration # 13     ecut=    90.00 Ry     beta= 0.20
     Davidson diagonalization with overlap
     ethr =  8.31E-05,  avg # of iterations =  2.5

     negative rho (up, down):  1.872E-03 1.873E-03

     total cpu time spent up to now is      684.2 secs

     total energy              =   -1895.75437695 Ry
     estimated scf accuracy    <       0.21101338 Ry

     total magnetization       =    -0.00 Bohr mag/cell
     absolute magnetization    =     0.00 Bohr mag/cell

     iteration # 14     ecut=    90.00 Ry     beta= 0.20
     Davidson diagonalization with overlap
     ethr =  8.31E-05,  avg # of iterations =  1.0

     negative rho (up, down):  1.859E-03 1.860E-03

     total cpu time spent up to now is      721.4 secs

     total energy              =   -1895.74936448 Ry
     estimated scf accuracy    <       0.07406328 Ry

     total magnetization       =    -0.00 Bohr mag/cell
     absolute magnetization    =     0.00 Bohr mag/cell

     iteration # 15     ecut=    90.00 Ry     beta= 0.20
     Davidson diagonalization with overlap
     ethr =  5.97E-05,  avg # of iterations =  1.1

     negative rho (up, down):  1.844E-03 1.844E-03

     total cpu time spent up to now is      758.9 secs

     total energy              =   -1895.75414841 Ry
     estimated scf accuracy    <       0.02629832 Ry

     total magnetization       =    -0.00 Bohr mag/cell
     absolute magnetization    =     0.00 Bohr mag/cell

     iteration # 16     ecut=    90.00 Ry     beta= 0.20
     Davidson diagonalization with overlap
     ethr =  2.12E-05,  avg # of iterations =  2.2

     negative rho (up, down):  1.841E-03 1.841E-03

     total cpu time spent up to now is      800.5 secs

     total energy              =   -1895.75486509 Ry
     estimated scf accuracy    <       0.00328425 Ry

     total magnetization       =    -0.00 Bohr mag/cell
     absolute magnetization    =     0.00 Bohr mag/cell

     iteration # 17     ecut=    90.00 Ry     beta= 0.20
     Davidson diagonalization with overlap
     ethr =  2.65E-06,  avg # of iterations =  7.5

     negative rho (up, down):  1.829E-03 1.829E-03

     total cpu time spent up to now is      860.7 secs

     total energy              =   -1895.75506993 Ry
     estimated scf accuracy    <       0.00057174 Ry

     total magnetization       =    -0.00 Bohr mag/cell
     absolute magnetization    =     0.00 Bohr mag/cell

     iteration # 18     ecut=    90.00 Ry     beta= 0.20
     Davidson diagonalization with overlap
     ethr =  4.61E-07,  avg # of iterations =  1.3

     negative rho (up, down):  1.819E-03 1.820E-03

     total cpu time spent up to now is      899.0 secs

     total energy              =   -1895.75507611 Ry
     estimated scf accuracy    <       0.00050710 Ry

     total magnetization       =    -0.00 Bohr mag/cell
     absolute magnetization    =     0.00 Bohr mag/cell

     iteration # 19     ecut=    90.00 Ry     beta= 0.20
     Davidson diagonalization with overlap
     ethr =  4.09E-07,  avg # of iterations =  1.0

     negative rho (up, down):  1.813E-03 1.814E-03

     total cpu time spent up to now is      936.0 secs

     total energy              =   -1895.75508908 Ry
     estimated scf accuracy    <       0.00013161 Ry

     total magnetization       =    -0.00 Bohr mag/cell
     absolute magnetization    =     0.00 Bohr mag/cell

     iteration # 20     ecut=    90.00 Ry     beta= 0.20
     Davidson diagonalization with overlap
     ethr =  1.06E-07,  avg # of iterations =  1.1

     negative rho (up, down):  1.807E-03 1.807E-03

     total cpu time spent up to now is      973.3 secs

     total energy              =   -1895.75508759 Ry
     estimated scf accuracy    <       0.00014593 Ry

     total magnetization       =    -0.00 Bohr mag/cell
     absolute magnetization    =     0.00 Bohr mag/cell

     iteration # 21     ecut=    90.00 Ry     beta= 0.20
     Davidson diagonalization with overlap
     ethr =  1.06E-07,  avg # of iterations =  1.0

     negative rho (up, down):  1.807E-03 1.807E-03

     total cpu time spent up to now is     1010.4 secs

     total energy              =   -1895.75508801 Ry
     estimated scf accuracy    <       0.00005595 Ry

     total magnetization       =    -0.00 Bohr mag/cell
     absolute magnetization    =     0.00 Bohr mag/cell

     iteration # 22     ecut=    90.00 Ry     beta= 0.20
     Davidson diagonalization with overlap
     ethr =  4.51E-08,  avg # of iterations =  1.1

     negative rho (up, down):  1.806E-03 1.806E-03

     total cpu time spent up to now is     1047.8 secs

     total energy              =   -1895.75508640 Ry
     estimated scf accuracy    <       0.00010335 Ry

     total magnetization       =    -0.00 Bohr mag/cell
     absolute magnetization    =     0.00 Bohr mag/cell

     iteration # 23     ecut=    90.00 Ry     beta= 0.20
     Davidson diagonalization with overlap
     ethr =  4.51E-08,  avg # of iterations =  1.0

     negative rho (up, down):  1.801E-03 1.801E-03

     total cpu time spent up to now is     1084.7 secs

     total energy              =   -1895.75508904 Ry
     estimated scf accuracy    <       0.00005774 Ry

     total magnetization       =    -0.00 Bohr mag/cell
     absolute magnetization    =     0.00 Bohr mag/cell

     iteration # 24     ecut=    90.00 Ry     beta= 0.20
     Davidson diagonalization with overlap
     ethr =  4.51E-08,  avg # of iterations =  1.0

     negative rho (up, down):  1.801E-03 1.801E-03

     total cpu time spent up to now is     1121.7 secs

     total energy              =   -1895.75508948 Ry
     estimated scf accuracy    <       0.00001560 Ry

     total magnetization       =    -0.00 Bohr mag/cell
     absolute magnetization    =     0.00 Bohr mag/cell

     iteration # 25     ecut=    90.00 Ry     beta= 0.20
     Davidson diagonalization with overlap
     ethr =  1.26E-08,  avg # of iterations =  1.0

     negative rho (up, down):  1.799E-03 1.799E-03

     total cpu time spent up to now is     1158.7 secs

     total energy              =   -1895.75508961 Ry
     estimated scf accuracy    <       0.00001015 Ry

     total magnetization       =    -0.00 Bohr mag/cell
     absolute magnetization    =     0.00 Bohr mag/cell

     iteration # 26     ecut=    90.00 Ry     beta= 0.20
     Davidson diagonalization with overlap
     ethr =  8.18E-09,  avg # of iterations =  1.0

     negative rho (up, down):  1.798E-03 1.798E-03

     total cpu time spent up to now is     1195.7 secs

     total energy              =   -1895.75508970 Ry
     estimated scf accuracy    <       0.00000937 Ry

     total magnetization       =    -0.00 Bohr mag/cell
     absolute magnetization    =     0.00 Bohr mag/cell

     iteration # 27     ecut=    90.00 Ry     beta= 0.20
     Davidson diagonalization with overlap
     ethr =  7.56E-09,  avg # of iterations =  1.0

     negative rho (up, down):  1.798E-03 1.798E-03

     total cpu time spent up to now is     1232.7 secs

     total energy              =   -1895.75508986 Ry
     estimated scf accuracy    <       0.00000497 Ry

     total magnetization       =    -0.00 Bohr mag/cell
     absolute magnetization    =     0.00 Bohr mag/cell

     iteration # 28     ecut=    90.00 Ry     beta= 0.20
     Davidson diagonalization with overlap
     ethr =  4.01E-09,  avg # of iterations =  1.0

     negative rho (up, down):  1.798E-03 1.798E-03

     total cpu time spent up to now is     1269.9 secs

     total energy              =   -1895.75508996 Ry
     estimated scf accuracy    <       0.00000263 Ry

     total magnetization       =    -0.00 Bohr mag/cell
     absolute magnetization    =     0.00 Bohr mag/cell

     iteration # 29     ecut=    90.00 Ry     beta= 0.20
     Davidson diagonalization with overlap
     ethr =  2.12E-09,  avg # of iterations =  1.2

     negative rho (up, down):  1.797E-03 1.797E-03

     total cpu time spent up to now is     1308.0 secs

     total energy              =   -1895.75509001 Ry
     estimated scf accuracy    <       0.00000259 Ry

     total magnetization       =    -0.00 Bohr mag/cell
     absolute magnetization    =     0.00 Bohr mag/cell

     iteration # 30     ecut=    90.00 Ry     beta= 0.20
     Davidson diagonalization with overlap
     ethr =  2.09E-09,  avg # of iterations =  1.0

     negative rho (up, down):  1.797E-03 1.797E-03

     total cpu time spent up to now is     1345.0 secs

     total energy              =   -1895.75509006 Ry
     estimated scf accuracy    <       0.00000193 Ry

     total magnetization       =    -0.00 Bohr mag/cell
     absolute magnetization    =     0.00 Bohr mag/cell

     iteration # 31     ecut=    90.00 Ry     beta= 0.20
     Davidson diagonalization with overlap
     ethr =  1.55E-09,  avg # of iterations =  1.0

     negative rho (up, down):  1.797E-03 1.797E-03

     total cpu time spent up to now is     1381.9 secs

     total energy              =   -1895.75509012 Ry
     estimated scf accuracy    <       0.00000019 Ry

     total magnetization       =    -0.00 Bohr mag/cell
     absolute magnetization    =     0.00 Bohr mag/cell

     iteration # 32     ecut=    90.00 Ry     beta= 0.20
     Davidson diagonalization with overlap
     ethr =  1.50E-10,  avg # of iterations =  1.7

     negative rho (up, down):  1.797E-03 1.797E-03

     total cpu time spent up to now is     1422.1 secs

     total energy              =   -1895.75509012 Ry
     estimated scf accuracy    <       0.00000016 Ry

     total magnetization       =    -0.00 Bohr mag/cell
     absolute magnetization    =     0.00 Bohr mag/cell

     iteration # 33     ecut=    90.00 Ry     beta= 0.20
     Davidson diagonalization with overlap
     ethr =  1.28E-10,  avg # of iterations =  1.4

     negative rho (up, down):  1.797E-03 1.797E-03

     total cpu time spent up to now is     1461.0 secs

     total energy              =   -1895.75509011 Ry
     estimated scf accuracy    <       0.00000062 Ry

     total magnetization       =    -0.00 Bohr mag/cell
     absolute magnetization    =     0.00 Bohr mag/cell

     iteration # 34     ecut=    90.00 Ry     beta= 0.20
     Davidson diagonalization with overlap
     ethr =  1.28E-10,  avg # of iterations =  1.0

     negative rho (up, down):  1.796E-03 1.797E-03

     total cpu time spent up to now is     1498.0 secs

     total energy              =   -1895.75509013 Ry
     estimated scf accuracy    <       0.00000008 Ry

     total magnetization       =    -0.00 Bohr mag/cell
     absolute magnetization    =     0.00 Bohr mag/cell

     iteration # 35     ecut=    90.00 Ry     beta= 0.20
     Davidson diagonalization with overlap
     ethr =  6.10E-11,  avg # of iterations =  1.2

     negative rho (up, down):  1.796E-03 1.797E-03

     total cpu time spent up to now is     1535.7 secs

     total energy              =   -1895.75509012 Ry
     estimated scf accuracy    <       0.00000003 Ry

     total magnetization       =    -0.00 Bohr mag/cell
     absolute magnetization    =     0.00 Bohr mag/cell

     iteration # 36     ecut=    90.00 Ry     beta= 0.20
     Davidson diagonalization with overlap
     ethr =  2.55E-11,  avg # of iterations =  2.3

     negative rho (up, down):  1.796E-03 1.797E-03

     total cpu time spent up to now is     1578.5 secs

     total energy              =   -1895.75509012 Ry
     estimated scf accuracy    <       0.00000014 Ry

     total magnetization       =    -0.00 Bohr mag/cell
     absolute magnetization    =     0.00 Bohr mag/cell

     iteration # 37     ecut=    90.00 Ry     beta= 0.20
     Davidson diagonalization with overlap
     ethr =  2.55E-11,  avg # of iterations =  1.0

     negative rho (up, down):  1.796E-03 1.797E-03

     Magnetic moment per site:
     atom:    1    charge:   11.6625    magn:   -0.0001    constr:    0.0000
     atom:    2    charge:   15.3099    magn:   -0.0001    constr:    0.0000
     atom:    3    charge:   11.5798    magn:    0.0001    constr:    0.0000
     atom:    4    charge:   15.3275    magn:   -0.0002    constr:    0.0000
     atom:    5    charge:   11.5951    magn:    0.0001    constr:    0.0000
     atom:    6    charge:   15.2858    magn:   -0.0003    constr:    0.0000
     atom:    7    charge:   11.6213    magn:    0.0001    constr:    0.0000
     atom:    8    charge:   15.3087    magn:   -0.0002    constr:    0.0000

     total cpu time spent up to now is     1615.6 secs

     End of self-consistent calculation

     Number of k-points >= 100: set verbosity='high' to print the bands.

     the Fermi energy is    16.9474 ev

!    total energy              =   -1895.75509012 Ry
     estimated scf accuracy    <          1.0E-08 Ry
     smearing contrib. (-TS)   =      -0.00812351 Ry
     internal energy E=F+TS    =   -1895.74696661 Ry

     The total energy is F=E-TS. E is the sum of the following terms:
     one-electron contribution =    -945.40408132 Ry
     hartree contribution      =     540.11266641 Ry
     xc contribution           =    -219.75895224 Ry
     ewald contribution        =   -1270.69659946 Ry

     total magnetization       =    -0.00 Bohr mag/cell
     absolute magnetization    =     0.00 Bohr mag/cell

     convergence has been achieved in  37 iterations

     negative rho (up, down):  1.796E-03 1.797E-03

     Forces acting on atoms (cartesian axes, Ry/au):

     atom    1 type  1   force =     0.00077219    0.00058355    0.00038815
     atom    2 type  2   force =     0.00188735   -0.00130918   -0.00145243
     atom    3 type  1   force =    -0.00222246   -0.00290794    0.00228437
     atom    4 type  2   force =     0.00248422    0.00445977   -0.00065236
     atom    5 type  1   force =    -0.00412595   -0.00181535    0.00151354
     atom    6 type  2   force =     0.00555960   -0.00176833    0.00030516
     atom    7 type  1   force =     0.00024848    0.00063136   -0.00202165
     atom    8 type  2   force =    -0.00460343    0.00212612   -0.00036478

     Total force =     0.011862     Total SCF correction =     0.000247


     Computing stress (Cartesian axis) and pressure


     negative rho (up, down):  1.796E-03 1.797E-03
          total   stress  (Ry/bohr**3)                   (kbar)     P=     -176.78
  -0.00095291   0.00004004  -0.00003030         -140.18        5.89       -4.46
   0.00004004  -0.00141450  -0.00008716            5.89     -208.08      -12.82
  -0.00003030  -0.00008716  -0.00123767           -4.46      -12.82     -182.07


     BFGS Geometry Optimization
     Energy error            =      0.0E+00
     Gradient error          =      5.6E-03

     number of scf cycles    =   1
     number of bfgs steps    =   0

     energy   new            =   -1895.7550901187 Ry

     new trust radius        =       0.0058420266 bohr
     new conv_thr            =       0.0000000100 Ry


ATOMIC_POSITIONS (angstrom)
Cr            0.6119553095        2.0265777136       -1.1945443834
Co            2.7386001897        0.3875300578        2.3315790504
Cr            0.4366797485       -0.4437101897        2.2275351467
Co            1.9012559729        2.7308473567        1.0563844751
Cr            1.6999696588        0.4384358596        0.0079437770
Co           -0.4133261598        1.8858192551        1.0797782380
Cr            2.7957316716        2.6490252235        3.3339890678
Co           -0.6232116845       -0.4233264303        0.0336332506



     Writing output data file ./pwscf.save/
     NEW-OLD atomic charge density approx. for the potential

     Check: negative core charge=   -0.000010

     negative rho (up, down):  1.795E-03 1.795E-03
     Generating pointlists ...

     total cpu time spent up to now is     1642.9 secs

     Self-consistent Calculation

     iteration #  1     ecut=    90.00 Ry     beta= 0.20
     Davidson diagonalization with overlap
     ethr =  1.00E-06,  avg # of iterations =  4.8

     negative rho (up, down):  1.795E-03 1.796E-03

     total cpu time spent up to now is     1725.9 secs

     total energy              =   -1895.75518365 Ry
     estimated scf accuracy    <       0.00014089 Ry

     total magnetization       =    -0.00 Bohr mag/cell
     absolute magnetization    =     0.00 Bohr mag/cell

     iteration #  2     ecut=    90.00 Ry     beta= 0.20
     Davidson diagonalization with overlap
     ethr =  1.14E-07,  avg # of iterations =  4.5

     negative rho (up, down):  1.795E-03 1.796E-03

     total cpu time spent up to now is     1780.6 secs

     total energy              =   -1895.75513441 Ry
     estimated scf accuracy    <       0.00289719 Ry

     total magnetization       =    -0.00 Bohr mag/cell
     absolute magnetization    =     0.00 Bohr mag/cell

     iteration #  3     ecut=    90.00 Ry     beta= 0.20
     Davidson diagonalization with overlap
     ethr =  1.14E-07,  avg # of iterations =  2.8

     negative rho (up, down):  1.795E-03 1.795E-03

     total cpu time spent up to now is     1825.5 secs

     total energy              =   -1895.75522053 Ry
     estimated scf accuracy    <       0.00005491 Ry

     total magnetization       =    -0.00 Bohr mag/cell
     absolute magnetization    =     0.00 Bohr mag/cell

     iteration #  4     ecut=    90.00 Ry     beta= 0.20
     Davidson diagonalization with overlap
     ethr =  4.43E-08,  avg # of iterations =  2.8

     negative rho (up, down):  1.795E-03 1.795E-03

     total cpu time spent up to now is     1868.8 secs

     total energy              =   -1895.75522311 Ry
     estimated scf accuracy    <       0.00002400 Ry

     total magnetization       =    -0.00 Bohr mag/cell
     absolute magnetization    =     0.00 Bohr mag/cell

     iteration #  5     ecut=    90.00 Ry     beta= 0.20
     Davidson diagonalization with overlap
     ethr =  1.94E-08,  avg # of iterations =  2.9

     negative rho (up, down):  1.795E-03 1.795E-03

     total cpu time spent up to now is     1913.4 secs

     total energy              =   -1895.75522328 Ry
     estimated scf accuracy    <       0.00006042 Ry

     total magnetization       =    -0.00 Bohr mag/cell
     absolute magnetization    =     0.00 Bohr mag/cell

     iteration #  6     ecut=    90.00 Ry     beta= 0.20
     Davidson diagonalization with overlap
     ethr =  1.94E-08,  avg # of iterations =  1.0

     negative rho (up, down):  1.795E-03 1.795E-03

     total cpu time spent up to now is     1950.1 secs

     total energy              =   -1895.75522491 Ry
     estimated scf accuracy    <       0.00000702 Ry

     total magnetization       =    -0.00 Bohr mag/cell
     absolute magnetization    =     0.00 Bohr mag/cell

     iteration #  7     ecut=    90.00 Ry     beta= 0.20
     Davidson diagonalization with overlap
     ethr =  5.66E-09,  avg # of iterations =  1.7

     negative rho (up, down):  1.795E-03 1.795E-03

     total cpu time spent up to now is     1990.2 secs

     total energy              =   -1895.75522484 Ry
     estimated scf accuracy    <       0.00000367 Ry

     total magnetization       =    -0.00 Bohr mag/cell
     absolute magnetization    =     0.00 Bohr mag/cell

     iteration #  8     ecut=    90.00 Ry     beta= 0.20
     Davidson diagonalization with overlap
     ethr =  2.96E-09,  avg # of iterations =  1.1

     negative rho (up, down):  1.795E-03 1.795E-03

     total cpu time spent up to now is     2027.7 secs

     total energy              =   -1895.75522501 Ry
     estimated scf accuracy    <       0.00000173 Ry

     total magnetization       =    -0.00 Bohr mag/cell
     absolute magnetization    =     0.00 Bohr mag/cell

     iteration #  9     ecut=    90.00 Ry     beta= 0.20
     Davidson diagonalization with overlap
     ethr =  1.40E-09,  avg # of iterations =  1.3

     negative rho (up, down):  1.795E-03 1.795E-03

     total cpu time spent up to now is     2066.3 secs

     total energy              =   -1895.75522504 Ry
     estimated scf accuracy    <       0.00000152 Ry

     total magnetization       =    -0.00 Bohr mag/cell
     absolute magnetization    =     0.00 Bohr mag/cell

     iteration # 10     ecut=    90.00 Ry     beta= 0.20
     Davidson diagonalization with overlap
     ethr =  1.23E-09,  avg # of iterations =  1.0

     negative rho (up, down):  1.795E-03 1.795E-03

     total cpu time spent up to now is     2103.4 secs

     total energy              =   -1895.75522505 Ry
     estimated scf accuracy    <       0.00000077 Ry

     total magnetization       =    -0.00 Bohr mag/cell
     absolute magnetization    =     0.00 Bohr mag/cell

     iteration # 11     ecut=    90.00 Ry     beta= 0.20
     Davidson diagonalization with overlap
     ethr =  6.20E-10,  avg # of iterations =  1.1

     negative rho (up, down):  1.795E-03 1.795E-03

     total cpu time spent up to now is     2140.7 secs

     total energy              =   -1895.75522508 Ry
     estimated scf accuracy    <       0.00000004 Ry

     total magnetization       =    -0.00 Bohr mag/cell
     absolute magnetization    =     0.00 Bohr mag/cell

     iteration # 12     ecut=    90.00 Ry     beta= 0.20
     Davidson diagonalization with overlap
     ethr =  3.18E-11,  avg # of iterations =  5.0

     negative rho (up, down):  1.795E-03 1.795E-03

     total cpu time spent up to now is     2191.7 secs

     total energy              =   -1895.75522509 Ry
     estimated scf accuracy    <       0.00000010 Ry

     total magnetization       =    -0.00 Bohr mag/cell
     absolute magnetization    =     0.00 Bohr mag/cell

     iteration # 13     ecut=    90.00 Ry     beta= 0.20
     Davidson diagonalization with overlap
     ethr =  3.18E-11,  avg # of iterations =  1.1

     negative rho (up, down):  1.795E-03 1.795E-03

     Magnetic moment per site:
     atom:    1    charge:   11.6627    magn:   -0.0001    constr:    0.0000
     atom:    2    charge:   15.3096    magn:   -0.0002    constr:    0.0000
     atom:    3    charge:   11.5799    magn:    0.0002    constr:    0.0000
     atom:    4    charge:   15.3275    magn:   -0.0002    constr:    0.0000
     atom:    5    charge:   11.5949    magn:    0.0002    constr:    0.0000
     atom:    6    charge:   15.2857    magn:   -0.0006    constr:    0.0000
     atom:    7    charge:   11.6212    magn:    0.0001    constr:    0.0000
     atom:    8    charge:   15.3088    magn:   -0.0002    constr:    0.0000

     total cpu time spent up to now is     2228.9 secs

     End of self-consistent calculation

     Number of k-points >= 100: set verbosity='high' to print the bands.

     the Fermi energy is    16.9473 ev

!    total energy              =   -1895.75522509 Ry
     estimated scf accuracy    <          8.7E-09 Ry
     smearing contrib. (-TS)   =      -0.00811842 Ry
     internal energy E=F+TS    =   -1895.74710667 Ry

     The total energy is F=E-TS. E is the sum of the following terms:
     one-electron contribution =    -945.39935415 Ry
     hartree contribution      =     540.11042749 Ry
     xc contribution           =    -219.75898448 Ry
     ewald contribution        =   -1270.69919552 Ry

     total magnetization       =    -0.00 Bohr mag/cell
     absolute magnetization    =     0.00 Bohr mag/cell

     convergence has been achieved in  13 iterations

     negative rho (up, down):  1.795E-03 1.795E-03

     Forces acting on atoms (cartesian axes, Ry/au):

     atom    1 type  1   force =     0.00080382    0.00057510    0.00036622
     atom    2 type  2   force =     0.00163761   -0.00103508   -0.00134390
     atom    3 type  1   force =    -0.00201743   -0.00253217    0.00205322
     atom    4 type  2   force =     0.00266202    0.00382402   -0.00074101
     atom    5 type  1   force =    -0.00399967   -0.00159537    0.00132070
     atom    6 type  2   force =     0.00510821   -0.00137406    0.00040387
     atom    7 type  1   force =     0.00013008    0.00043476   -0.00183739
     atom    8 type  2   force =    -0.00432464    0.00170279   -0.00022171

     Total force =     0.010830     Total SCF correction =     0.000494


     Computing stress (Cartesian axis) and pressure


     negative rho (up, down):  1.795E-03 1.795E-03
          total   stress  (Ry/bohr**3)                   (kbar)     P=     -176.56
  -0.00095103   0.00003928  -0.00002913         -139.90        5.78       -4.28
   0.00003928  -0.00141259  -0.00008756            5.78     -207.80      -12.88
  -0.00002913  -0.00008756  -0.00123711           -4.28      -12.88     -181.98

     Energy error            =      1.3E-04
     Gradient error          =      5.1E-03

     number of scf cycles    =   2
     number of bfgs steps    =   1

     energy   old            =   -1895.7550901187 Ry
     energy   new            =   -1895.7552250888 Ry

     CASE: energy  _new < energy  _old


     WARNING: bfgs curvature condition failed, Theta= 0.878
     new trust radius        =       0.0064262292 bohr
     new conv_thr            =       0.0000000013 Ry


ATOMIC_POSITIONS (angstrom)
Cr            0.6124546217        2.0269393719       -1.1943117332
Co            2.7396620913        0.3868423414        2.3307213080
Cr            0.4353861436       -0.4453506901        2.2288548981
Co            1.9028991721        2.7333345047        1.0559326360
Cr            1.6974448407        0.4374046624        0.0087989619
Co           -0.4100603303        1.8849019960        1.0800173394
Cr            2.7958300320        2.6493256623        3.3328112577
Co           -0.6259618644       -0.4221990022        0.0334739543



     Writing output data file ./pwscf.save/
     NEW-OLD atomic charge density approx. for the potential

     Check: negative core charge=   -0.000010

     negative rho (up, down):  1.801E-03 1.802E-03
     Generating pointlists ...

     total cpu time spent up to now is     2256.6 secs

     Self-consistent Calculation

     iteration #  1     ecut=    90.00 Ry     beta= 0.20
     Davidson diagonalization with overlap
     ethr =  1.00E-06,  avg # of iterations =  4.7

     negative rho (up, down):  1.801E-03 1.801E-03

     total cpu time spent up to now is     2340.4 secs

     total energy              =   -1895.75531876 Ry
     estimated scf accuracy    <       0.00013671 Ry

     total magnetization       =    -0.00 Bohr mag/cell
     absolute magnetization    =     0.00 Bohr mag/cell

     iteration #  2     ecut=    90.00 Ry     beta= 0.20
     Davidson diagonalization with overlap
     ethr =  1.10E-07,  avg # of iterations =  4.5

     negative rho (up, down):  1.801E-03 1.802E-03

     total cpu time spent up to now is     2397.3 secs

     total energy              =   -1895.75527512 Ry
     estimated scf accuracy    <       0.00278108 Ry

     total magnetization       =    -0.00 Bohr mag/cell
     absolute magnetization    =     0.00 Bohr mag/cell

     iteration #  3     ecut=    90.00 Ry     beta= 0.20
     Davidson diagonalization with overlap
     ethr =  1.10E-07,  avg # of iterations =  3.0

     negative rho (up, down):  1.801E-03 1.801E-03

     total cpu time spent up to now is     2443.2 secs

     total energy              =   -1895.75535713 Ry
     estimated scf accuracy    <       0.00005524 Ry

     total magnetization       =    -0.00 Bohr mag/cell
     absolute magnetization    =     0.00 Bohr mag/cell

     iteration #  4     ecut=    90.00 Ry     beta= 0.20
     Davidson diagonalization with overlap
     ethr =  4.46E-08,  avg # of iterations =  2.7

     negative rho (up, down):  1.801E-03 1.801E-03

     total cpu time spent up to now is     2486.5 secs

     total energy              =   -1895.75535941 Ry
     estimated scf accuracy    <       0.00003336 Ry

     total magnetization       =    -0.00 Bohr mag/cell
     absolute magnetization    =     0.00 Bohr mag/cell

     iteration #  5     ecut=    90.00 Ry     beta= 0.20
     Davidson diagonalization with overlap
     ethr =  2.69E-08,  avg # of iterations =  2.1

     negative rho (up, down):  1.801E-03 1.802E-03

     total cpu time spent up to now is     2529.2 secs

     total energy              =   -1895.75535994 Ry
     estimated scf accuracy    <       0.00005389 Ry

     total magnetization       =    -0.00 Bohr mag/cell
     absolute magnetization    =     0.00 Bohr mag/cell

     iteration #  6     ecut=    90.00 Ry     beta= 0.20
     Davidson diagonalization with overlap
     ethr =  2.69E-08,  avg # of iterations =  1.0

     negative rho (up, down):  1.801E-03 1.802E-03

     total cpu time spent up to now is     2566.4 secs

     total energy              =   -1895.75536151 Ry
     estimated scf accuracy    <       0.00000650 Ry

     total magnetization       =    -0.00 Bohr mag/cell
     absolute magnetization    =     0.00 Bohr mag/cell

     iteration #  7     ecut=    90.00 Ry     beta= 0.20
     Davidson diagonalization with overlap
     ethr =  5.24E-09,  avg # of iterations =  2.1

     negative rho (up, down):  1.801E-03 1.802E-03

     total cpu time spent up to now is     2608.6 secs

     total energy              =   -1895.75536155 Ry
     estimated scf accuracy    <       0.00000383 Ry

     total magnetization       =    -0.00 Bohr mag/cell
     absolute magnetization    =     0.00 Bohr mag/cell

     iteration #  8     ecut=    90.00 Ry     beta= 0.20
     Davidson diagonalization with overlap
     ethr =  3.09E-09,  avg # of iterations =  1.1

     negative rho (up, down):  1.801E-03 1.802E-03

     total cpu time spent up to now is     2646.2 secs

     total energy              =   -1895.75536165 Ry
     estimated scf accuracy    <       0.00000111 Ry

     total magnetization       =    -0.00 Bohr mag/cell
     absolute magnetization    =     0.00 Bohr mag/cell

     iteration #  9     ecut=    90.00 Ry     beta= 0.20
     Davidson diagonalization with overlap
     ethr =  8.98E-10,  avg # of iterations =  1.9

     negative rho (up, down):  1.801E-03 1.802E-03

     total cpu time spent up to now is     2688.2 secs

     total energy              =   -1895.75536170 Ry
     estimated scf accuracy    <       0.00000082 Ry

     total magnetization       =    -0.00 Bohr mag/cell
     absolute magnetization    =     0.00 Bohr mag/cell

     iteration # 10     ecut=    90.00 Ry     beta= 0.20
     Davidson diagonalization with overlap
     ethr =  6.59E-10,  avg # of iterations =  1.1

     negative rho (up, down):  1.801E-03 1.802E-03

     total cpu time spent up to now is     2726.3 secs

     total energy              =   -1895.75536172 Ry
     estimated scf accuracy    <       0.00000072 Ry

     total magnetization       =    -0.00 Bohr mag/cell
     absolute magnetization    =     0.00 Bohr mag/cell

     iteration # 11     ecut=    90.00 Ry     beta= 0.20
     Davidson diagonalization with overlap
     ethr =  5.78E-10,  avg # of iterations =  1.1

     negative rho (up, down):  1.801E-03 1.802E-03

     total cpu time spent up to now is     2763.9 secs

     total energy              =   -1895.75536175 Ry
     estimated scf accuracy    <       0.00000006 Ry

     total magnetization       =    -0.00 Bohr mag/cell
     absolute magnetization    =     0.00 Bohr mag/cell

     iteration # 12     ecut=    90.00 Ry     beta= 0.20
     Davidson diagonalization with overlap
     ethr =  4.85E-11,  avg # of iterations =  4.7

     negative rho (up, down):  1.801E-03 1.802E-03

     total cpu time spent up to now is     2813.5 secs

     total energy              =   -1895.75536175 Ry
     estimated scf accuracy    <       0.00000006 Ry

     total magnetization       =    -0.00 Bohr mag/cell
     absolute magnetization    =     0.00 Bohr mag/cell

     iteration # 13     ecut=    90.00 Ry     beta= 0.20
     Davidson diagonalization with overlap
     ethr =  4.85E-11,  avg # of iterations =  1.0

     negative rho (up, down):  1.801E-03 1.802E-03

     total cpu time spent up to now is     2850.8 secs

     total energy              =   -1895.75536175 Ry
     estimated scf accuracy    <       0.00000001 Ry

     total magnetization       =    -0.00 Bohr mag/cell
     absolute magnetization    =     0.00 Bohr mag/cell

     iteration # 14     ecut=    90.00 Ry     beta= 0.20
     Davidson diagonalization with overlap
     ethr =  1.12E-11,  avg # of iterations =  2.2

     negative rho (up, down):  1.801E-03 1.802E-03

     total cpu time spent up to now is     2898.9 secs

     total energy              =   -1895.75536175 Ry
     estimated scf accuracy    <       0.00000002 Ry

     total magnetization       =    -0.00 Bohr mag/cell
     absolute magnetization    =     0.00 Bohr mag/cell

     iteration # 15     ecut=    90.00 Ry     beta= 0.20
     Davidson diagonalization with overlap
     ethr =  1.12E-11,  avg # of iterations =  1.2

     negative rho (up, down):  1.801E-03 1.802E-03

     total cpu time spent up to now is     2937.1 secs

     total energy              =   -1895.75536176 Ry
     estimated scf accuracy    <       0.00000003 Ry

     total magnetization       =    -0.00 Bohr mag/cell
     absolute magnetization    =     0.00 Bohr mag/cell

     iteration # 16     ecut=    90.00 Ry     beta= 0.20
     Davidson diagonalization with overlap
     ethr =  1.12E-11,  avg # of iterations =  1.0

     negative rho (up, down):  1.801E-03 1.802E-03

     total cpu time spent up to now is     2974.4 secs

     total energy              =   -1895.75536176 Ry
     estimated scf accuracy    <          3.7E-09 Ry

     total magnetization       =    -0.00 Bohr mag/cell
     absolute magnetization    =     0.00 Bohr mag/cell

     iteration # 17     ecut=    90.00 Ry     beta= 0.20
     Davidson diagonalization with overlap
     ethr =  3.00E-12,  avg # of iterations =  1.1

     negative rho (up, down):  1.801E-03 1.802E-03

     total cpu time spent up to now is     3012.4 secs

     total energy              =   -1895.75536176 Ry
     estimated scf accuracy    <          3.8E-09 Ry

     total magnetization       =    -0.00 Bohr mag/cell
     absolute magnetization    =     0.00 Bohr mag/cell

     iteration # 18     ecut=    90.00 Ry     beta= 0.20
     Davidson diagonalization with overlap
     ethr =  3.00E-12,  avg # of iterations =  1.0

     negative rho (up, down):  1.801E-03 1.802E-03

     total cpu time spent up to now is     3049.7 secs

     total energy              =   -1895.75536176 Ry
     estimated scf accuracy    <          3.4E-09 Ry

     total magnetization       =    -0.00 Bohr mag/cell
     absolute magnetization    =     0.00 Bohr mag/cell

     iteration # 19     ecut=    90.00 Ry     beta= 0.20
     Davidson diagonalization with overlap
     ethr =  2.75E-12,  avg # of iterations =  1.0

     negative rho (up, down):  1.801E-03 1.802E-03

     total cpu time spent up to now is     3087.1 secs

     total energy              =   -1895.75536176 Ry
     estimated scf accuracy    <          2.8E-09 Ry

     total magnetization       =    -0.00 Bohr mag/cell
     absolute magnetization    =     0.00 Bohr mag/cell

     iteration # 20     ecut=    90.00 Ry     beta= 0.20
     Davidson diagonalization with overlap
     ethr =  2.28E-12,  avg # of iterations =  1.0

     negative rho (up, down):  1.801E-03 1.802E-03

     total cpu time spent up to now is     3124.4 secs

     total energy              =   -1895.75536176 Ry
     estimated scf accuracy    <          2.7E-09 Ry

     total magnetization       =    -0.00 Bohr mag/cell
     absolute magnetization    =     0.00 Bohr mag/cell

     iteration # 21     ecut=    90.00 Ry     beta= 0.20
     Davidson diagonalization with overlap
     ethr =  2.15E-12,  avg # of iterations =  1.0

     negative rho (up, down):  1.801E-03 1.802E-03

     total cpu time spent up to now is     3161.7 secs

     total energy              =   -1895.75536176 Ry
     estimated scf accuracy    <          2.7E-09 Ry

     total magnetization       =    -0.00 Bohr mag/cell
     absolute magnetization    =     0.00 Bohr mag/cell

     iteration # 22     ecut=    90.00 Ry     beta= 0.20
     Davidson diagonalization with overlap
     ethr =  2.15E-12,  avg # of iterations =  1.0

     negative rho (up, down):  1.801E-03 1.802E-03

     total cpu time spent up to now is     3199.0 secs

     total energy              =   -1895.75536176 Ry
     estimated scf accuracy    <          2.6E-09 Ry

     total magnetization       =    -0.00 Bohr mag/cell
     absolute magnetization    =     0.00 Bohr mag/cell

     iteration # 23     ecut=    90.00 Ry     beta= 0.20
     Davidson diagonalization with overlap
     ethr =  2.11E-12,  avg # of iterations =  1.0

     negative rho (up, down):  1.801E-03 1.802E-03

     total cpu time spent up to now is     3236.4 secs

     total energy              =   -1895.75536176 Ry
     estimated scf accuracy    <          3.8E-09 Ry

     total magnetization       =    -0.00 Bohr mag/cell
     absolute magnetization    =     0.00 Bohr mag/cell

     iteration # 24     ecut=    90.00 Ry     beta= 0.20
     Davidson diagonalization with overlap
     ethr =  2.11E-12,  avg # of iterations =  1.0

     negative rho (up, down):  1.801E-03 1.802E-03

     total cpu time spent up to now is     3273.7 secs

     total energy              =   -1895.75536175 Ry
     estimated scf accuracy    <          4.5E-09 Ry

     total magnetization       =    -0.00 Bohr mag/cell
     absolute magnetization    =     0.00 Bohr mag/cell

     iteration # 25     ecut=    90.00 Ry     beta= 0.20
     Davidson diagonalization with overlap
     ethr =  2.11E-12,  avg # of iterations =  1.9

     negative rho (up, down):  1.801E-03 1.802E-03

     total cpu time spent up to now is     3317.6 secs

     total energy              =   -1895.75536175 Ry
     estimated scf accuracy    <          5.0E-09 Ry

     total magnetization       =    -0.00 Bohr mag/cell
     absolute magnetization    =     0.00 Bohr mag/cell

     iteration # 26     ecut=    90.00 Ry     beta= 0.20
     Davidson diagonalization with overlap
     ethr =  2.11E-12,  avg # of iterations =  1.6

     negative rho (up, down):  1.801E-03 1.801E-03

     total cpu time spent up to now is     3358.9 secs

     total energy              =   -1895.75536175 Ry
     estimated scf accuracy    <          3.0E-09 Ry

     total magnetization       =    -0.00 Bohr mag/cell
     absolute magnetization    =     0.00 Bohr mag/cell

     iteration # 27     ecut=    90.00 Ry     beta= 0.20
     Davidson diagonalization with overlap
     ethr =  2.11E-12,  avg # of iterations =  3.7

     negative rho (up, down):  1.801E-03 1.801E-03

     total cpu time spent up to now is     3411.2 secs

     total energy              =   -1895.75536175 Ry
     estimated scf accuracy    <          2.8E-09 Ry

     total magnetization       =    -0.00 Bohr mag/cell
     absolute magnetization    =     0.00 Bohr mag/cell

     iteration # 28     ecut=    90.00 Ry     beta= 0.20
     Davidson diagonalization with overlap
     ethr =  2.11E-12,  avg # of iterations =  1.6

     negative rho (up, down):  1.801E-03 1.801E-03

     total cpu time spent up to now is     3451.6 secs

     total energy              =   -1895.75536175 Ry
     estimated scf accuracy    <          4.5E-09 Ry

     total magnetization       =    -0.00 Bohr mag/cell
     absolute magnetization    =     0.00 Bohr mag/cell

     iteration # 29     ecut=    90.00 Ry     beta= 0.20
     Davidson diagonalization with overlap
     ethr =  2.11E-12,  avg # of iterations =  2.6

     negative rho (up, down):  1.801E-03 1.801E-03

     total cpu time spent up to now is     3498.4 secs

     total energy              =   -1895.75536175 Ry
     estimated scf accuracy    <          3.9E-09 Ry

     total magnetization       =    -0.00 Bohr mag/cell
     absolute magnetization    =     0.00 Bohr mag/cell

     iteration # 30     ecut=    90.00 Ry     beta= 0.20
     Davidson diagonalization with overlap
     ethr =  2.11E-12,  avg # of iterations =  1.4

     negative rho (up, down):  1.801E-03 1.801E-03

     total cpu time spent up to now is     3538.0 secs

     total energy              =   -1895.75536175 Ry
     estimated scf accuracy    <          1.8E-09 Ry

     total magnetization       =    -0.00 Bohr mag/cell
     absolute magnetization    =     0.00 Bohr mag/cell

     iteration # 31     ecut=    90.00 Ry     beta= 0.20
     Davidson diagonalization with overlap
     ethr =  1.41E-12,  avg # of iterations =  3.0

     negative rho (up, down):  1.801E-03 1.801E-03

     total cpu time spent up to now is     3585.8 secs

     total energy              =   -1895.75536175 Ry
     estimated scf accuracy    <          2.3E-09 Ry

     total magnetization       =    -0.00 Bohr mag/cell
     absolute magnetization    =     0.00 Bohr mag/cell

     iteration # 32     ecut=    90.00 Ry     beta= 0.20
     Davidson diagonalization with overlap
     ethr =  1.41E-12,  avg # of iterations =  4.7

     negative rho (up, down):  1.801E-03 1.801E-03

     total cpu time spent up to now is     3645.4 secs

     total energy              =   -1895.75536175 Ry
     estimated scf accuracy    <          1.4E-09 Ry

     total magnetization       =    -0.00 Bohr mag/cell
     absolute magnetization    =     0.00 Bohr mag/cell

     iteration # 33     ecut=    90.00 Ry     beta= 0.20
     Davidson diagonalization with overlap
     ethr =  1.09E-12,  avg # of iterations =  1.0

     negative rho (up, down):  1.801E-03 1.801E-03

     Magnetic moment per site:
     atom:    1    charge:   11.6630    magn:   -0.0000    constr:    0.0000
     atom:    2    charge:   15.3093    magn:   -0.0001    constr:    0.0000
     atom:    3    charge:   11.5800    magn:    0.0001    constr:    0.0000
     atom:    4    charge:   15.3275    magn:   -0.0001    constr:    0.0000
     atom:    5    charge:   11.5948    magn:    0.0000    constr:    0.0000
     atom:    6    charge:   15.2857    magn:   -0.0000    constr:    0.0000
     atom:    7    charge:   11.6213    magn:    0.0000    constr:    0.0000
     atom:    8    charge:   15.3089    magn:   -0.0001    constr:    0.0000

     total cpu time spent up to now is     3682.8 secs

     End of self-consistent calculation

     Number of k-points >= 100: set verbosity='high' to print the bands.

     the Fermi energy is    16.9471 ev

!    total energy              =   -1895.75536175 Ry
     estimated scf accuracy    <          5.5E-10 Ry
     smearing contrib. (-TS)   =      -0.00811268 Ry
     internal energy E=F+TS    =   -1895.74724907 Ry

     The total energy is F=E-TS. E is the sum of the following terms:
     one-electron contribution =    -945.40277788 Ry
     hartree contribution      =     540.11170545 Ry
     xc contribution           =    -219.75902011 Ry
     ewald contribution        =   -1270.69715653 Ry

     total magnetization       =    -0.00 Bohr mag/cell
     absolute magnetization    =     0.00 Bohr mag/cell

     convergence has been achieved in  33 iterations

     negative rho (up, down):  1.801E-03 1.801E-03

     Forces acting on atoms (cartesian axes, Ry/au):

     atom    1 type  1   force =     0.00076870    0.00056119    0.00033325
     atom    2 type  2   force =     0.00128098   -0.00088297   -0.00124253
     atom    3 type  1   force =    -0.00179246   -0.00216367    0.00180383
     atom    4 type  2   force =     0.00290523    0.00341787   -0.00088016
     atom    5 type  1   force =    -0.00385933   -0.00141452    0.00111578
     atom    6 type  2   force =     0.00478491   -0.00092892    0.00054448
     atom    7 type  1   force =     0.00001491    0.00019574   -0.00161774
     atom    8 type  2   force =    -0.00410295    0.00121528   -0.00005690

     Total force =     0.010010     Total SCF correction =     0.000068


     Computing stress (Cartesian axis) and pressure


     negative rho (up, down):  1.801E-03 1.801E-03
          total   stress  (Ry/bohr**3)                   (kbar)     P=     -176.65
  -0.00095110   0.00003847  -0.00002765         -139.91        5.66       -4.07
   0.00003847  -0.00141282  -0.00008796            5.66     -207.83      -12.94
  -0.00002765  -0.00008796  -0.00123866           -4.07      -12.94     -182.21

     Energy error            =      1.4E-04
     Gradient error          =      4.8E-03

     number of scf cycles    =   6
     number of bfgs steps    =   2

     energy   old            =   -1895.7552250888 Ry
     energy   new            =   -1895.7553617506 Ry

     CASE: energy  _new < energy  _old

     new trust radius        =       0.0096393439 bohr
     new conv_thr            =       0.0000000014 Ry


ATOMIC_POSITIONS (angstrom)
Cr            0.6132224989        2.0275051704       -1.1939669041
Co            2.7410718122        0.3858647035        2.3294334494
Cr            0.4335013981       -0.4476751846        2.2307619896
Co            1.9057140131        2.7369820665        1.0551009149
Cr            1.6935289203        0.4359028389        0.0100003579
Co           -0.4051060178        1.8837926250        1.0805107761
Cr            2.7958955720        2.6496147762        3.3311071667
Co           -0.6301734900       -0.4207881495        0.0333508716



     Writing output data file ./pwscf.save/
     NEW-OLD atomic charge density approx. for the potential

     Check: negative core charge=   -0.000010

     negative rho (up, down):  1.820E-03 1.820E-03
     Generating pointlists ...

     total cpu time spent up to now is     3710.2 secs

     Self-consistent Calculation

     iteration #  1     ecut=    90.00 Ry     beta= 0.20
     Davidson diagonalization with overlap
     ethr =  1.00E-06,  avg # of iterations =  5.1

     negative rho (up, down):  1.819E-03 1.819E-03

     total cpu time spent up to now is     3801.9 secs

     total energy              =   -1895.75547078 Ry
     estimated scf accuracy    <       0.00026830 Ry

     total magnetization       =    -0.00 Bohr mag/cell
     absolute magnetization    =     0.00 Bohr mag/cell

     iteration #  2     ecut=    90.00 Ry     beta= 0.20
     Davidson diagonalization with overlap
     ethr =  2.16E-07,  avg # of iterations =  4.4

     negative rho (up, down):  1.820E-03 1.820E-03

     total cpu time spent up to now is     3856.9 secs

     total energy              =   -1895.75537812 Ry
     estimated scf accuracy    <       0.00536074 Ry

     total magnetization       =    -0.00 Bohr mag/cell
     absolute magnetization    =     0.00 Bohr mag/cell

     iteration #  3     ecut=    90.00 Ry     beta= 0.20
     Davidson diagonalization with overlap
     ethr =  2.16E-07,  avg # of iterations =  3.0

     negative rho (up, down):  1.819E-03 1.820E-03

     total cpu time spent up to now is     3902.5 secs

     total energy              =   -1895.75553573 Ry
     estimated scf accuracy    <       0.00011051 Ry

     total magnetization       =    -0.00 Bohr mag/cell
     absolute magnetization    =     0.00 Bohr mag/cell

     iteration #  4     ecut=    90.00 Ry     beta= 0.20
     Davidson diagonalization with overlap
     ethr =  8.91E-08,  avg # of iterations =  2.5

     negative rho (up, down):  1.819E-03 1.820E-03

     total cpu time spent up to now is     3945.5 secs

     total energy              =   -1895.75554003 Ry
     estimated scf accuracy    <       0.00006964 Ry

     total magnetization       =    -0.00 Bohr mag/cell
     absolute magnetization    =     0.00 Bohr mag/cell

     iteration #  5     ecut=    90.00 Ry     beta= 0.20
     Davidson diagonalization with overlap
     ethr =  5.62E-08,  avg # of iterations =  2.1

     negative rho (up, down):  1.820E-03 1.820E-03

     total cpu time spent up to now is     3988.2 secs

     total energy              =   -1895.75554125 Ry
     estimated scf accuracy    <       0.00010641 Ry

     total magnetization       =    -0.00 Bohr mag/cell
     absolute magnetization    =     0.00 Bohr mag/cell

     iteration #  6     ecut=    90.00 Ry     beta= 0.20
     Davidson diagonalization with overlap
     ethr =  5.62E-08,  avg # of iterations =  1.0

     negative rho (up, down):  1.820E-03 1.820E-03

     total cpu time spent up to now is     4025.4 secs

     total energy              =   -1895.75554431 Ry
     estimated scf accuracy    <       0.00001361 Ry

     total magnetization       =    -0.00 Bohr mag/cell
     absolute magnetization    =     0.00 Bohr mag/cell

     iteration #  7     ecut=    90.00 Ry     beta= 0.20
     Davidson diagonalization with overlap
     ethr =  1.10E-08,  avg # of iterations =  2.0

     negative rho (up, down):  1.819E-03 1.820E-03

     total cpu time spent up to now is     4067.5 secs

     total energy              =   -1895.75554414 Ry
     estimated scf accuracy    <       0.00000831 Ry

     total magnetization       =    -0.00 Bohr mag/cell
     absolute magnetization    =     0.00 Bohr mag/cell

     iteration #  8     ecut=    90.00 Ry     beta= 0.20
     Davidson diagonalization with overlap
     ethr =  6.70E-09,  avg # of iterations =  1.1

     negative rho (up, down):  1.819E-03 1.820E-03

     total cpu time spent up to now is     4105.4 secs

     total energy              =   -1895.75554458 Ry
     estimated scf accuracy    <       0.00000574 Ry

     total magnetization       =    -0.00 Bohr mag/cell
     absolute magnetization    =     0.00 Bohr mag/cell

     iteration #  9     ecut=    90.00 Ry     beta= 0.20
     Davidson diagonalization with overlap
     ethr =  4.63E-09,  avg # of iterations =  1.0

     negative rho (up, down):  1.819E-03 1.820E-03

     total cpu time spent up to now is     4143.0 secs

     total energy              =   -1895.75554461 Ry
     estimated scf accuracy    <       0.00000471 Ry

     total magnetization       =    -0.00 Bohr mag/cell
     absolute magnetization    =     0.00 Bohr mag/cell

     iteration # 10     ecut=    90.00 Ry     beta= 0.20
     Davidson diagonalization with overlap
     ethr =  3.80E-09,  avg # of iterations =  1.0

     negative rho (up, down):  1.819E-03 1.820E-03

     total cpu time spent up to now is     4180.4 secs

     total energy              =   -1895.75554468 Ry
     estimated scf accuracy    <       0.00000163 Ry

     total magnetization       =    -0.00 Bohr mag/cell
     absolute magnetization    =     0.00 Bohr mag/cell

     iteration # 11     ecut=    90.00 Ry     beta= 0.20
     Davidson diagonalization with overlap
     ethr =  1.31E-09,  avg # of iterations =  1.2

     negative rho (up, down):  1.819E-03 1.820E-03

     total cpu time spent up to now is     4218.9 secs

     total energy              =   -1895.75554474 Ry
     estimated scf accuracy    <       0.00000008 Ry

     total magnetization       =    -0.00 Bohr mag/cell
     absolute magnetization    =     0.00 Bohr mag/cell

     iteration # 12     ecut=    90.00 Ry     beta= 0.20
     Davidson diagonalization with overlap
     ethr =  6.19E-11,  avg # of iterations =  5.5

     negative rho (up, down):  1.819E-03 1.820E-03

     total cpu time spent up to now is     4272.9 secs

     total energy              =   -1895.75554475 Ry
     estimated scf accuracy    <       0.00000013 Ry

     total magnetization       =    -0.00 Bohr mag/cell
     absolute magnetization    =     0.00 Bohr mag/cell

     iteration # 13     ecut=    90.00 Ry     beta= 0.20
     Davidson diagonalization with overlap
     ethr =  6.19E-11,  avg # of iterations =  1.0

     negative rho (up, down):  1.819E-03 1.820E-03

     total cpu time spent up to now is     4310.3 secs

     total energy              =   -1895.75554476 Ry
     estimated scf accuracy    <       0.00000003 Ry

     total magnetization       =    -0.00 Bohr mag/cell
     absolute magnetization    =     0.00 Bohr mag/cell

     iteration # 14     ecut=    90.00 Ry     beta= 0.20
     Davidson diagonalization with overlap
     ethr =  2.10E-11,  avg # of iterations =  2.0

     negative rho (up, down):  1.819E-03 1.820E-03

     total cpu time spent up to now is     4355.5 secs

     total energy              =   -1895.75554476 Ry
     estimated scf accuracy    <       0.00000004 Ry

     total magnetization       =    -0.00 Bohr mag/cell
     absolute magnetization    =     0.00 Bohr mag/cell

     iteration # 15     ecut=    90.00 Ry     beta= 0.20
     Davidson diagonalization with overlap
     ethr =  2.10E-11,  avg # of iterations =  1.0

     negative rho (up, down):  1.819E-03 1.820E-03

     total cpu time spent up to now is     4393.0 secs

     total energy              =   -1895.75554476 Ry
     estimated scf accuracy    <       0.00000011 Ry

     total magnetization       =    -0.00 Bohr mag/cell
     absolute magnetization    =     0.00 Bohr mag/cell

     iteration # 16     ecut=    90.00 Ry     beta= 0.20
     Davidson diagonalization with overlap
     ethr =  2.10E-11,  avg # of iterations =  1.0

     negative rho (up, down):  1.819E-03 1.820E-03

     total cpu time spent up to now is     4431.2 secs

     total energy              =   -1895.75554476 Ry
     estimated scf accuracy    <       0.00000003 Ry

     total magnetization       =    -0.00 Bohr mag/cell
     absolute magnetization    =     0.00 Bohr mag/cell

     iteration # 17     ecut=    90.00 Ry     beta= 0.20
     Davidson diagonalization with overlap
     ethr =  2.10E-11,  avg # of iterations =  1.0

     negative rho (up, down):  1.819E-03 1.820E-03

     total cpu time spent up to now is     4468.6 secs

     total energy              =   -1895.75554476 Ry
     estimated scf accuracy    <          1.5E-09 Ry

     total magnetization       =    -0.00 Bohr mag/cell
     absolute magnetization    =     0.00 Bohr mag/cell

     iteration # 18     ecut=    90.00 Ry     beta= 0.20
     Davidson diagonalization with overlap
     ethr =  1.24E-12,  avg # of iterations =  2.0

     negative rho (up, down):  1.819E-03 1.820E-03

     total cpu time spent up to now is     4512.0 secs

     total energy              =   -1895.75554476 Ry
     estimated scf accuracy    <          4.1E-09 Ry

     total magnetization       =    -0.00 Bohr mag/cell
     absolute magnetization    =     0.00 Bohr mag/cell

     iteration # 19     ecut=    90.00 Ry     beta= 0.20
     Davidson diagonalization with overlap
     ethr =  1.24E-12,  avg # of iterations =  1.1

     negative rho (up, down):  1.819E-03 1.820E-03

     total cpu time spent up to now is     4550.0 secs

     total energy              =   -1895.75554476 Ry
     estimated scf accuracy    <          1.9E-09 Ry

     total magnetization       =    -0.00 Bohr mag/cell
     absolute magnetization    =     0.00 Bohr mag/cell

     iteration # 20     ecut=    90.00 Ry     beta= 0.20
     Davidson diagonalization with overlap
     ethr =  1.24E-12,  avg # of iterations =  1.0

     negative rho (up, down):  1.819E-03 1.820E-03

     Magnetic moment per site:
     atom:    1    charge:   11.6636    magn:   -0.0000    constr:    0.0000
     atom:    2    charge:   15.3089    magn:   -0.0001    constr:    0.0000
     atom:    3    charge:   11.5801    magn:    0.0001    constr:    0.0000
     atom:    4    charge:   15.3274    magn:   -0.0001    constr:    0.0000
     atom:    5    charge:   11.5947    magn:    0.0000    constr:    0.0000
     atom:    6    charge:   15.2856    magn:   -0.0001    constr:    0.0000
     atom:    7    charge:   11.6214    magn:    0.0000    constr:    0.0000
     atom:    8    charge:   15.3089    magn:   -0.0001    constr:    0.0000

     total cpu time spent up to now is     4587.4 secs

     End of self-consistent calculation

     Number of k-points >= 100: set verbosity='high' to print the bands.

     the Fermi energy is    16.9468 ev

!    total energy              =   -1895.75554476 Ry
     estimated scf accuracy    <          7.5E-10 Ry
     smearing contrib. (-TS)   =      -0.00810389 Ry
     internal energy E=F+TS    =   -1895.74744087 Ry

     The total energy is F=E-TS. E is the sum of the following terms:
     one-electron contribution =    -945.42418129 Ry
     hartree contribution      =     540.12158401 Ry
     xc contribution           =    -219.75915857 Ry
     ewald contribution        =   -1270.68568502 Ry

     total magnetization       =    -0.00 Bohr mag/cell
     absolute magnetization    =     0.00 Bohr mag/cell

     convergence has been achieved in  20 iterations

     negative rho (up, down):  1.819E-03 1.820E-03

     Forces acting on atoms (cartesian axes, Ry/au):

     atom    1 type  1   force =     0.00071902    0.00058178    0.00027361
     atom    2 type  2   force =     0.00085000   -0.00054103   -0.00109965
     atom    3 type  1   force =    -0.00145664   -0.00163749    0.00144575
     atom    4 type  2   force =     0.00304350    0.00261145   -0.00098185
     atom    5 type  1   force =    -0.00361866   -0.00118969    0.00085287
     atom    6 type  2   force =     0.00421884   -0.00039364    0.00071736
     atom    7 type  1   force =    -0.00011966   -0.00009225   -0.00134744
     atom    8 type  2   force =    -0.00363639    0.00066087    0.00013933

     Total force =     0.008736     Total SCF correction =     0.000111


     Computing stress (Cartesian axis) and pressure


     negative rho (up, down):  1.819E-03 1.820E-03
          total   stress  (Ry/bohr**3)                   (kbar)     P=     -176.85
  -0.00095154   0.00003721  -0.00002531         -139.98        5.47       -3.72
   0.00003721  -0.00141383  -0.00008885            5.47     -207.98      -13.07
  -0.00002531  -0.00008885  -0.00124121           -3.72      -13.07     -182.59

     Energy error            =      4.3E-03
     Gradient error          =      4.2E-03

     number of scf cycles    =   8
     number of bfgs steps    =   4

     energy   old            =   -1895.7598266521 Ry
     energy   new            =   -1895.7555447619 Ry

     CASE: energy  _new > energy  _old

     new trust radius        =       0.0005966241 bohr
     new conv_thr            =       0.0000000014 Ry


ATOMIC_POSITIONS (angstrom)
Cr            0.6119324739        2.0266438334       -1.1943869349
Co            2.7386441973        0.3874233612        2.3314958769
Cr            0.4365120911       -0.4438082901        2.2276646366
Co            1.9014682251        2.7310279709        1.0562160022
Cr            1.6997978530        0.4382912798        0.0080192298
Co           -0.4129710868        1.8857910149        1.0799452378
Cr            2.7956831730        2.6490083084        3.3337640026
Co           -0.6234012489       -0.4231838966        0.0336187447



     Writing output data file ./pwscf.save/
     NEW-OLD atomic charge density approx. for the potential

     Check: negative core charge=   -0.000010

     negative rho (up, down):  1.795E-03 1.796E-03
     Generating pointlists ...

     total cpu time spent up to now is     4614.7 secs

     Self-consistent Calculation

     iteration #  1     ecut=    90.00 Ry     beta= 0.20
     Davidson diagonalization with overlap
     ethr =  1.00E-06,  avg # of iterations =  6.0

     negative rho (up, down):  1.796E-03 1.796E-03

     total cpu time spent up to now is     4719.2 secs

     total energy              =   -1895.75503990 Ry
     estimated scf accuracy    <       0.00075093 Ry

     total magnetization       =    -0.00 Bohr mag/cell
     absolute magnetization    =     0.00 Bohr mag/cell

     iteration #  2     ecut=    90.00 Ry     beta= 0.20
     Davidson diagonalization with overlap
     ethr =  6.06E-07,  avg # of iterations =  4.6

     negative rho (up, down):  1.795E-03 1.795E-03

     total cpu time spent up to now is     4774.2 secs

     total energy              =   -1895.75476141 Ry
     estimated scf accuracy    <       0.01546623 Ry

     total magnetization       =    -0.00 Bohr mag/cell
     absolute magnetization    =     0.00 Bohr mag/cell

     iteration #  3     ecut=    90.00 Ry     beta= 0.20
     Davidson diagonalization with overlap
     ethr =  6.06E-07,  avg # of iterations =  3.0

     negative rho (up, down):  1.796E-03 1.796E-03

     total cpu time spent up to now is     4819.7 secs

     total energy              =   -1895.75521335 Ry
     estimated scf accuracy    <       0.00030933 Ry

     total magnetization       =    -0.00 Bohr mag/cell
     absolute magnetization    =     0.00 Bohr mag/cell

     iteration #  4     ecut=    90.00 Ry     beta= 0.20
     Davidson diagonalization with overlap
     ethr =  2.49E-07,  avg # of iterations =  2.8

     negative rho (up, down):  1.796E-03 1.796E-03

     total cpu time spent up to now is     4863.4 secs

     total energy              =   -1895.75522637 Ry
     estimated scf accuracy    <       0.00018355 Ry

     total magnetization       =    -0.00 Bohr mag/cell
     absolute magnetization    =     0.00 Bohr mag/cell

     iteration #  5     ecut=    90.00 Ry     beta= 0.20
     Davidson diagonalization with overlap
     ethr =  1.48E-07,  avg # of iterations =  1.9

     negative rho (up, down):  1.796E-03 1.796E-03

     total cpu time spent up to now is     4905.4 secs

     total energy              =   -1895.75522865 Ry
     estimated scf accuracy    <       0.00028870 Ry

     total magnetization       =    -0.00 Bohr mag/cell
     absolute magnetization    =     0.00 Bohr mag/cell

     iteration #  6     ecut=    90.00 Ry     beta= 0.20
     Davidson diagonalization with overlap
     ethr =  1.48E-07,  avg # of iterations =  1.0

     negative rho (up, down):  1.796E-03 1.796E-03

     total cpu time spent up to now is     4942.6 secs

     total energy              =   -1895.75523716 Ry
     estimated scf accuracy    <       0.00003375 Ry

     total magnetization       =    -0.00 Bohr mag/cell
     absolute magnetization    =     0.00 Bohr mag/cell

     iteration #  7     ecut=    90.00 Ry     beta= 0.20
     Davidson diagonalization with overlap
     ethr =  2.72E-08,  avg # of iterations =  2.2

     negative rho (up, down):  1.796E-03 1.796E-03

     total cpu time spent up to now is     4985.0 secs

     total energy              =   -1895.75523660 Ry
     estimated scf accuracy    <       0.00002141 Ry

     total magnetization       =    -0.00 Bohr mag/cell
     absolute magnetization    =     0.00 Bohr mag/cell

     iteration #  8     ecut=    90.00 Ry     beta= 0.20
     Davidson diagonalization with overlap
     ethr =  1.73E-08,  avg # of iterations =  1.2

     negative rho (up, down):  1.796E-03 1.796E-03

     total cpu time spent up to now is     5023.5 secs

     total energy              =   -1895.75523808 Ry
     estimated scf accuracy    <       0.00002131 Ry

     total magnetization       =    -0.00 Bohr mag/cell
     absolute magnetization    =     0.00 Bohr mag/cell

     iteration #  9     ecut=    90.00 Ry     beta= 0.20
     Davidson diagonalization with overlap
     ethr =  1.72E-08,  avg # of iterations =  1.0

     negative rho (up, down):  1.796E-03 1.796E-03

     total cpu time spent up to now is     5060.9 secs

     total energy              =   -1895.75523784 Ry
     estimated scf accuracy    <       0.00001895 Ry

     total magnetization       =    -0.00 Bohr mag/cell
     absolute magnetization    =     0.00 Bohr mag/cell

     iteration # 10     ecut=    90.00 Ry     beta= 0.20
     Davidson diagonalization with overlap
     ethr =  1.53E-08,  avg # of iterations =  1.0

     negative rho (up, down):  1.796E-03 1.796E-03

     total cpu time spent up to now is     5098.2 secs

     total energy              =   -1895.75523817 Ry
     estimated scf accuracy    <       0.00000428 Ry

     total magnetization       =    -0.00 Bohr mag/cell
     absolute magnetization    =     0.00 Bohr mag/cell

     iteration # 11     ecut=    90.00 Ry     beta= 0.20
     Davidson diagonalization with overlap
     ethr =  3.45E-09,  avg # of iterations =  1.2

     negative rho (up, down):  1.796E-03 1.796E-03

     total cpu time spent up to now is     5136.7 secs

     total energy              =   -1895.75523834 Ry
     estimated scf accuracy    <       0.00000019 Ry

     total magnetization       =    -0.00 Bohr mag/cell
     absolute magnetization    =     0.00 Bohr mag/cell

     iteration # 12     ecut=    90.00 Ry     beta= 0.20
     Davidson diagonalization with overlap
     ethr =  1.54E-10,  avg # of iterations =  5.6

     negative rho (up, down):  1.796E-03 1.796E-03

     total cpu time spent up to now is     5192.0 secs

     total energy              =   -1895.75523837 Ry
     estimated scf accuracy    <       0.00000038 Ry

     total magnetization       =    -0.00 Bohr mag/cell
     absolute magnetization    =     0.00 Bohr mag/cell

     iteration # 13     ecut=    90.00 Ry     beta= 0.20
     Davidson diagonalization with overlap
     ethr =  1.54E-10,  avg # of iterations =  1.0

     negative rho (up, down):  1.796E-03 1.796E-03

     total cpu time spent up to now is     5229.4 secs

     total energy              =   -1895.75523838 Ry
     estimated scf accuracy    <       0.00000007 Ry

     total magnetization       =    -0.00 Bohr mag/cell
     absolute magnetization    =     0.00 Bohr mag/cell

     iteration # 14     ecut=    90.00 Ry     beta= 0.20
     Davidson diagonalization with overlap
     ethr =  5.52E-11,  avg # of iterations =  2.0

     negative rho (up, down):  1.796E-03 1.796E-03

     total cpu time spent up to now is     5274.3 secs

     total energy              =   -1895.75523838 Ry
     estimated scf accuracy    <       0.00000032 Ry

     total magnetization       =    -0.00 Bohr mag/cell
     absolute magnetization    =     0.00 Bohr mag/cell

     iteration # 15     ecut=    90.00 Ry     beta= 0.20
     Davidson diagonalization with overlap
     ethr =  5.52E-11,  avg # of iterations =  1.0

     negative rho (up, down):  1.796E-03 1.796E-03

     total cpu time spent up to now is     5311.6 secs

     total energy              =   -1895.75523839 Ry
     estimated scf accuracy    <       0.00000014 Ry

     total magnetization       =    -0.00 Bohr mag/cell
     absolute magnetization    =     0.00 Bohr mag/cell

     iteration # 16     ecut=    90.00 Ry     beta= 0.20
     Davidson diagonalization with overlap
     ethr =  5.52E-11,  avg # of iterations =  1.0

     negative rho (up, down):  1.796E-03 1.796E-03

     total cpu time spent up to now is     5349.2 secs

     total energy              =   -1895.75523839 Ry
     estimated scf accuracy    <       0.00000010 Ry

     total magnetization       =    -0.00 Bohr mag/cell
     absolute magnetization    =     0.00 Bohr mag/cell

     iteration # 17     ecut=    90.00 Ry     beta= 0.20
     Davidson diagonalization with overlap
     ethr =  5.52E-11,  avg # of iterations =  1.0

     negative rho (up, down):  1.796E-03 1.796E-03

     total cpu time spent up to now is     5386.5 secs

     total energy              =   -1895.75523839 Ry
     estimated scf accuracy    <          7.2E-09 Ry

     total magnetization       =    -0.00 Bohr mag/cell
     absolute magnetization    =     0.00 Bohr mag/cell

     iteration # 18     ecut=    90.00 Ry     beta= 0.20
     Davidson diagonalization with overlap
     ethr =  5.79E-12,  avg # of iterations =  2.0

     negative rho (up, down):  1.796E-03 1.796E-03

     total cpu time spent up to now is     5431.8 secs

     total energy              =   -1895.75523839 Ry
     estimated scf accuracy    <       0.00000002 Ry

     total magnetization       =    -0.00 Bohr mag/cell
     absolute magnetization    =     0.00 Bohr mag/cell

     iteration # 19     ecut=    90.00 Ry     beta= 0.20
     Davidson diagonalization with overlap
     ethr =  5.79E-12,  avg # of iterations =  1.0

     negative rho (up, down):  1.796E-03 1.796E-03

     total cpu time spent up to now is     5469.2 secs

     total energy              =   -1895.75523839 Ry
     estimated scf accuracy    <          6.0E-09 Ry

     total magnetization       =    -0.00 Bohr mag/cell
     absolute magnetization    =     0.00 Bohr mag/cell

     iteration # 20     ecut=    90.00 Ry     beta= 0.20
     Davidson diagonalization with overlap
     ethr =  4.85E-12,  avg # of iterations =  1.0

     negative rho (up, down):  1.796E-03 1.796E-03

     total cpu time spent up to now is     5506.6 secs

     total energy              =   -1895.75523839 Ry
     estimated scf accuracy    <          4.6E-09 Ry

     total magnetization       =    -0.00 Bohr mag/cell
     absolute magnetization    =     0.00 Bohr mag/cell

     iteration # 21     ecut=    90.00 Ry     beta= 0.20
     Davidson diagonalization with overlap
     ethr =  3.67E-12,  avg # of iterations =  1.0

     negative rho (up, down):  1.796E-03 1.796E-03

     total cpu time spent up to now is     5544.0 secs

     total energy              =   -1895.75523839 Ry
     estimated scf accuracy    <          9.9E-09 Ry

     total magnetization       =    -0.00 Bohr mag/cell
     absolute magnetization    =     0.00 Bohr mag/cell

     iteration # 22     ecut=    90.00 Ry     beta= 0.20
     Davidson diagonalization with overlap
     ethr =  3.67E-12,  avg # of iterations =  1.0

     negative rho (up, down):  1.796E-03 1.796E-03

     Magnetic moment per site:
     atom:    1    charge:   11.6627    magn:   -0.0001    constr:    0.0000
     atom:    2    charge:   15.3096    magn:   -0.0001    constr:    0.0000
     atom:    3    charge:   11.5799    magn:    0.0001    constr:    0.0000
     atom:    4    charge:   15.3275    magn:   -0.0001    constr:    0.0000
     atom:    5    charge:   11.5950    magn:    0.0001    constr:    0.0000
     atom:    6    charge:   15.2857    magn:   -0.0003    constr:    0.0000
     atom:    7    charge:   11.6212    magn:    0.0001    constr:    0.0000
     atom:    8    charge:   15.3088    magn:   -0.0001    constr:    0.0000

     total cpu time spent up to now is     5581.3 secs

     End of self-consistent calculation

     Number of k-points >= 100: set verbosity='high' to print the bands.

     the Fermi energy is    16.9473 ev

!    total energy              =   -1895.75523839 Ry
     estimated scf accuracy    <          8.8E-10 Ry
     smearing contrib. (-TS)   =      -0.00811830 Ry
     internal energy E=F+TS    =   -1895.74712010 Ry

     The total energy is F=E-TS. E is the sum of the following terms:
     one-electron contribution =    -945.39695626 Ry
     hartree contribution      =     540.10921140 Ry
     xc contribution           =    -219.75896968 Ry
     ewald contribution        =   -1270.70040556 Ry

     total magnetization       =    -0.00 Bohr mag/cell
     absolute magnetization    =     0.00 Bohr mag/cell

     convergence has been achieved in  22 iterations

     negative rho (up, down):  1.796E-03 1.796E-03

     Forces acting on atoms (cartesian axes, Ry/au):

     atom    1 type  1   force =     0.00080736    0.00056081    0.00033568
     atom    2 type  2   force =     0.00160225   -0.00107574   -0.00133809
     atom    3 type  1   force =    -0.00198211   -0.00253867    0.00202208
     atom    4 type  2   force =     0.00274470    0.00393692   -0.00074021
     atom    5 type  1   force =    -0.00401461   -0.00157742    0.00129235
     atom    6 type  2   force =     0.00511453   -0.00130282    0.00043487
     atom    7 type  1   force =     0.00012238    0.00041386   -0.00177943
     atom    8 type  2   force =    -0.00439451    0.00158307   -0.00022726

     Total force =     0.010871     Total SCF correction =     0.000100


     Computing stress (Cartesian axis) and pressure


     negative rho (up, down):  1.796E-03 1.796E-03
          total   stress  (Ry/bohr**3)                   (kbar)     P=     -176.58
  -0.00095106   0.00003925  -0.00002890         -139.91        5.77       -4.25
   0.00003925  -0.00141287  -0.00008752            5.77     -207.84      -12.87
  -0.00002890  -0.00008752  -0.00123720           -4.25      -12.87     -182.00

     Energy error            =      4.8E-03
     Gradient error          =      5.1E-03

     number of scf cycles    =  13
     number of bfgs steps    =   5

     energy   old            =   -1895.7600135191 Ry
     energy   new            =   -1895.7552383943 Ry

     CASE: energy  _new > energy  _old


 %%%%%%%%%%%%%%%%%%%%%%%%%%%%%%%%%%%%%%%%%%%%%%%%%%%%%%%%%%%%%%%%%%%%%%%%%%%%%%
     Error in routine bfgs (1):
     dE0s is positive which should never happen
 %%%%%%%%%%%%%%%%%%%%%%%%%%%%%%%%%%%%%%%%%%%%%%%%%%%%%%%%%%%%%%%%%%%%%%%%%%%%%%

     stopping ...
Abort(1) on node 0 (rank 0 in comm 0): application called MPI_Abort(MPI_COMM_WORLD, 1) - process 0
