 # File generated with Atomsk by kevin on 2022-03-20 17:47:58
 
           8  atoms
           2  atom types
 
      0.000000000000       4.614400000000  xlo xhi
      0.000000000000       4.614400000000  ylo yhi
      0.000000000000       4.614400000000  zlo zhi
      0.023072000000       0.000000000000       0.000000000000  xy xz yz
 
Masses
 
            1   58.93319500             # Co
            2   51.99610000             # Cr
 
Atoms # atomic
 
         1    1        0.005057168636      -0.002992104465      -0.003153885225
         2    2        2.318561989657       2.300955747634       2.308761451213
         3    1        0.016593168636       2.304207895535       2.304046114775
         4    2        2.307025989657      -0.006244252366       0.001561451213
         5    1        2.323793168636       2.304207895535      -0.003153885225
         6    2        0.005057168636      -0.002992104465       2.304046114775
         7    1        2.312257168636      -0.002992104465       2.304046114775
         8    2        0.016593168636       2.304207895535      -0.003153885225
