 # File generated with Atomsk by kevin on 2022-03-20 17:47:57
 
           8  atoms
           2  atom types
 
      0.000000000000       4.614400000000  xlo xhi
      0.000000000000       4.614400000000  ylo yhi
      0.000000000000       4.637472000000  zlo zhi
 
Masses
 
            1   58.93319500             # Co
            2   51.99610000             # Cr
 
Atoms # atomic
 
         1    1       -0.008435062183      -0.002936855632       0.002362679783
         2    2        2.311076901202       2.312253181736       2.321546639627
         3    1       -0.008435062183       2.304263144368       2.321098679783
         4    2        2.311076901202       0.005053181736       0.002810639627
         5    1        2.298764937817       2.304263144368       0.002362679783
         6    2       -0.008435062183      -0.002936855632       2.321098679783
         7    1        2.298764937817      -0.002936855632       2.321098679783
         8    2       -0.008435062183       2.304263144368       0.002362679783
