 # File generated with Atomsk by kevin on 2022-03-20 17:47:57
 
           8  atoms
           2  atom types
 
      0.000000000000       4.614400000000  xlo xhi
      0.000000000000       4.614400000000  ylo yhi
      0.000000000000       4.614400000000  zlo zhi
      0.000000000000       0.000000000000       0.023072000000  xy xz yz
 
Masses
 
            1   58.93319500             # Co
            2   51.99610000             # Cr
 
Atoms # atomic
 
         1    1       -0.000125593828      -0.007190639959      -0.006259286242
         2    2        2.302036007522       2.322239902026       2.304565592525
         3    1       -0.000125593828       2.311545360041       2.300940713758
         4    2        2.302036007522       0.003503902026      -0.002634407475
         5    1        2.307074406172       2.300009360041      -0.006259286242
         6    2       -0.000125593828       0.004345360041       2.300940713758
         7    1        2.307074406172       0.004345360041       2.300940713758
         8    2       -0.000125593828       2.300009360041      -0.006259286242
