 # File generated with Atomsk by kevin on 2022-03-20 17:47:57
 
           8  atoms
           2  atom types
 
      0.000000000000       4.637472000000  xlo xhi
      0.000000000000       4.614400000000  ylo yhi
      0.000000000000       4.614400000000  zlo zhi
 
Masses
 
            1   58.93319500             # Co
            2   51.99610000             # Cr
 
Atoms # atomic
 
         1    1       -0.006014034034       0.007972530620       0.000607509811
         2    2        2.310767593020       2.304807171595       2.306693158064
         3    1       -0.006014034034       2.315172530620       2.307807509811
         4    2        2.310767593020      -0.002392828405      -0.000506841936
         5    1        2.312721965966       2.315172530620       0.000607509811
         6    2       -0.006014034034       0.007972530620       2.307807509811
         7    1        2.312721965966       0.007972530620       2.307807509811
         8    2       -0.006014034034       2.315172530620       0.000607509811
