LAMMPS data file

4 atoms
1 atom types

0.0 2.45894247637856 xlo xhi
0.0 3.8960681362685 ylo yhi
0.0 4.27106152907336 zlo zhi
-0.000127396020638516 5.0810844588959e-06 -1.80273098424694e-05 xy xz yz


Atoms

1 1 2.1486831084 1.9502822651 1.2420612393
2 1 2.1449724433 3.8976926906 4.0999936223
3 1 0.9182432720 1.9483743610 3.3770254514
4 1 0.9164698906 3.8967181147 1.9638989635
