 # H4
  
           4  atoms
           1  atom types
 
      0.000000000000       2.376936666667  xlo xhi
      0.000000000000       3.764309848843  ylo yhi
      0.000000000000       4.250078652916  zlo zhi
     -0.120248803757       0.320692187793       0.276194088858  xy xz yz
 
Masses
 
            1   1.00800000              # H
 
Atoms # atomic
 
         1    1        2.124671417643       1.834483471784       1.184885274517
         2    1        2.275625849969       3.900859359790       4.028774404172
         3    1        1.095626197329       1.970710563503       3.309359340514
         4    1        0.927738284052       3.761777251659       1.903174067332
