 # H4
  
           4  atoms
           1  atom types
 
      0.000000000000       2.540863333333  xlo xhi
      0.000000000000       4.024904717932  ylo yhi
      0.000000000000       4.269143448393  zlo zhi
      0.092609138143      -0.001839291600      -0.129251862861  xy xz yz
 
Masses
 
            1   1.00800000              # H
 
Atoms # atomic
 
         1    1        2.087967675084       2.023206447062       1.324868319388
         2    1        2.036647185288      -0.076365154956       4.181514428159
         3    1        0.815567865576       1.956637577531       3.458872247506
         4    1        0.768115710722      -0.012736438269       2.046379177027
