 # H4
  
           4  atoms
           1  atom types
 
      0.000000000000       2.376936666667  xlo xhi
      0.000000000000       3.762891919813  ylo yhi
      0.000000000000       4.119827152911  zlo zhi
     -0.158533317346      -0.036448103782       0.268527798867  xy xz yz
 
Masses
 
            1   1.00800000              # H
 
Atoms # atomic
 
         1    1        2.108251156903       2.001436667888       1.195407317476
         2    1        2.159626520025       0.299082088229       3.952140218921
         3    1        0.900701935019       2.133832324759       3.254772956920
         4    1        0.990365890112       0.163834494362       1.891682825281
