 # H4
  
           4  atoms
           1  atom types
 
      0.000000000000       2.335955000000  xlo xhi
      0.000000000000       3.887615498942  ylo yhi
      0.000000000000       4.267149541690  zlo zhi
     -0.256984323232       0.124404053965      -0.135105996222  xy xz yz
 
Masses
 
            1   1.00800000              # H
 
Atoms # atomic
 
         1    1        1.865913919752       1.784127372172       1.408964099210
         2    1        1.817239027317       3.636920209910       4.264276009237
         3    1        0.759324350136       1.714699074411       3.541971339166
         4    1        0.588030541274       3.703511362907       2.130137974653
