 # H4
  
           4  atoms
           1  atom types
 
      0.000000000000       2.417918333333  xlo xhi
      0.000000000000       3.891509350851  ylo yhi
      0.000000000000       4.266279754250  zlo zhi
      0.189077185937      -0.196502628611      -0.050388346124  xy xz yz
 
Masses
 
            1   1.00800000              # H
 
Atoms # atomic
 
         1    1        2.285851169665       1.854933760952       1.341905836353
         2    1        2.245284510805       3.766360712261       4.196635738553
         3    1        0.977619665211       1.827851124486       3.474478298271
         4    1        1.135510027082       3.790580876228       2.062932712500
