 # H4
  
           4  atoms
           1  atom types
 
      0.000000000000       2.417918333333  xlo xhi
      0.000000000000       3.820696746889  ylo yhi
      0.000000000000       4.249963122896  zlo zhi
     -0.283022305718      -0.342813139934       0.250175568574  xy xz yz
 
Masses
 
            1   1.00800000              # H
 
Atoms # atomic
 
         1    1        1.860915168935       1.827547054388       1.218910785680
         2    1        1.486470960942       3.904697558048       4.062722609809
         3    1        0.479777780570       1.950740886009       3.343327102033
         4    1        0.449990014940       3.778613935006       1.937180053229
