 # H4
  
           4  atoms
           1  atom types
 
      0.000000000000       2.376936666667  xlo xhi
      0.000000000000       3.891068365070  ylo yhi
      0.000000000000       4.263037816876  zlo zhi
     -0.197944912411      -0.043259153930      -0.258713021483  xy xz yz
 
Masses
 
            1   1.00800000              # H
 
Atoms # atomic
 
         1    1        2.065043451845       1.826132055718       1.355996550967
         2    1        1.933628355235       3.597940626750       4.208557149676
         3    1        0.854108804204       1.694915003514       3.486948475375
         4    1        0.767784081176       3.726350738383       2.076475520246
