 # H4
  
           4  atoms
           1  atom types
 
      0.000000000000       2.335955000000  xlo xhi
      0.000000000000       3.689439116086  ylo yhi
      0.000000000000       4.263144680487  zlo zhi
      0.296012982356      -0.178396210716       0.189914283924  xy xz yz
 
Masses
 
            1   1.00800000              # H
 
Atoms # atomic
 
         1    1        2.142069083522       2.041388391539       1.335060237344
         2    1        1.871177877440       0.323168455671       4.187692342556
         3    1        0.883850344313       2.134523518052       3.466065579345
         4    1        0.793270138051       0.227256506366       2.055557267215
