 # H4
  
           4  atoms
           1  atom types
 
      0.000000000000       2.581845000000  xlo xhi
      0.000000000000       4.077425005752  ylo yhi
      0.000000000000       4.472419412633  zlo zhi
     -0.331826824559      -0.232125125203       0.236035998905  xy xz yz
 
Masses
 
            1   1.00800000              # H
 
Atoms # atomic
 
         1    1        2.124474701725       2.175548750753       1.247076906989
         2    1        2.131285010808       0.294136748387       4.239742687919
         3    1        0.716662282654       2.291549651440       3.482691781523
         4    1        0.957559163061       0.175060081081       2.002942622240
