 # H4
  
           4  atoms
           1  atom types
 
      0.000000000000       2.581845000000  xlo xhi
      0.000000000000       3.895893846219  ylo yhi
      0.000000000000       4.270621853192  zlo zhi
     -0.040079283872       0.046635013411       0.043696367821  xy xz yz
 
Masses
 
            1   1.00800000              # H
 
Atoms # atomic
 
         1    1        2.182166976998       2.052065075421       1.366611195740
         2    1        2.229586713005       0.132745397149       4.224246561341
         3    1        0.913555471083       2.072010147412       3.501354129629
         4    1        0.916370479233       0.109909680069       2.088371912660
