 # H4
  
           4  atoms
           1  atom types
 
      0.000000000000       2.499881666667  xlo xhi
      0.000000000000       3.896096025095  ylo yhi
      0.000000000000       4.255129377344  zlo zhi
      0.005565360749      -0.120214530051       0.348880579612  xy xz yz
 
Masses
 
            1   1.00800000              # H
 
Atoms # atomic
 
         1    1        1.965631468978       2.016312895636       1.352536767758
         2    1        1.884263340988       4.197198474388       4.199805529056
         3    1        0.654609195562       2.188809385561       3.479535524223
         4    1        0.695431691785       4.021730316147       2.071679163306
