 # H4
  
           4  atoms
           1  atom types
 
      0.000000000000       2.581845000000  xlo xhi
      0.000000000000       4.089331767460  ylo yhi
      0.000000000000       4.266049120200  zlo zhi
      0.113443442596       0.207587613678       0.005243728578  xy xz yz
 
Masses
 
            1   1.00800000              # H
 
Atoms # atomic
 
         1    1        2.502600389819       2.033696539337       1.232015702912
         2    1        2.694377603158       4.081229176033       4.086591279105
         3    1        1.314369011774       2.034326201639       3.364472878479
         4    1        1.300625135782       4.077576107966       1.953003600521
