 # H4
  
           4  atoms
           1  atom types
 
      0.000000000000       2.499881666667  xlo xhi
      0.000000000000       3.954953605381  ylo yhi
      0.000000000000       4.323267545969  zlo zhi
      0.219408866061      -0.314765334318      -0.256358209365  xy xz yz
 
Masses
 
            1   1.00800000              # H
 
Atoms # atomic
 
         1    1        2.161720161167       1.747042299440       1.392794833619
         2    1        2.057058876337       3.552359154916       4.285657432793
         3    1        0.753344219088       1.616971227993       3.553853612020
         4    1        0.965474421411       3.679575450574       2.123452988493
