 # H4
  
           4  atoms
           1  atom types
 
      0.000000000000       2.540863333333  xlo xhi
      0.000000000000       3.895551539565  ylo yhi
      0.000000000000       4.263087527455  zlo zhi
      0.065371343825      -0.078602871074      -0.249402349464  xy xz yz
 
Masses
 
            1   1.00800000              # H
 
Atoms # atomic
 
         1    1        2.115614460113       1.901722279111       1.203391029901
         2    1        2.026551715767      -0.213549681579       4.055984891847
         3    1        0.804856335230       1.775157141292       3.334367802987
         4    1        0.796419027655      -0.089797264725       1.923878400566
