 # H4
  
           4  atoms
           1  atom types
 
      0.000000000000       2.335955000000  xlo xhi
      0.000000000000       3.698848975507  ylo yhi
      0.000000000000       4.047633706587  zlo zhi
      0.134539709429       0.055445650227       0.277954284360  xy xz yz
 
Masses
 
            1   1.00800000              # H
 
Atoms # atomic
 
         1    1        2.010927118057       1.775914487706       1.277859756369
         2    1        2.111810084319       3.810748030099       3.986285279528
         3    1        0.869676845835       1.913053322515       3.301138274380
         4    1        0.916991238598       3.670802088011       1.961934138585
