 # H4
  
           4  atoms
           1  atom types
 
      0.000000000000       2.499881666667  xlo xhi
      0.000000000000       3.959337962670  ylo yhi
      0.000000000000       4.268832178726  zlo zhi
      0.115936053874       0.110227156643       0.084953009433  xy xz yz
 
Masses
 
            1   1.00800000              # H
 
Atoms # atomic
 
         1    1        2.254797183535       2.003857533686       1.139274395979
         2    1        2.266858309386       0.080412223118       3.995712222387
         3    1        1.058911354195       2.044394542065       3.273122730662
         4    1        1.078683638993       3.996264714107       1.860732647177
