 # H4
  
           4  atoms
           1  atom types
 
      0.000000000000       2.417918333333  xlo xhi
      0.000000000000       3.819524818973  ylo yhi
      0.000000000000       4.196868330230  zlo zhi
      0.298421538224       0.064525341137      -0.146351311191  xy xz yz
 
Masses
 
            1   1.00800000              # H
 
Atoms # atomic
 
         1    1        2.392924357472       1.848946687053       1.175774825245
         2    1        2.581676441314       3.660180207475       3.984058905999
         3    1        1.215118870473       1.773930387595       3.273650806872
         4    1        1.341325962248       3.732412661189       1.885070754264
