
     Program PWSCF v.6.7MaX starts on  8Dec2021 at 18:49:48 

     This program is part of the open-source Quantum ESPRESSO suite
     for quantum simulation of materials; please cite
         "P. Giannozzi et al., J. Phys.:Condens. Matter 21 395502 (2009);
         "P. Giannozzi et al., J. Phys.:Condens. Matter 29 465901 (2017);
          URL http://www.quantum-espresso.org", 
     in publications or presentations arising from this work. More details at
     http://www.quantum-espresso.org/quote

     Parallel version (MPI), running on    12 processors

     MPI processes distributed on     1 nodes
     R & G space division:  proc/nbgrp/npool/nimage =      12
     Reading input from Opt-B1-CoCr.in

     Current dimensions of program PWSCF are:
     Max number of different atomic species (ntypx) = 10
     Max number of k-points (npk) =  40000
     Max angular momentum in pseudopotentials (lmaxx) =  3

     Subspace diagonalization in iterative solution of the eigenvalue problem:
     a serial algorithm will be used


     Parallelization info
     --------------------
     sticks:   dense  smooth     PW     G-vecs:    dense   smooth      PW
     Min         140      47     15                 3825      738     140
     Max         142      49     16                 3827      740     143
     Sum        1687     571    187                45911     8873    1687



     bravais-lattice index     =            2
     lattice parameter (alat)  =       6.7608  a.u.
     unit-cell volume          =      77.2565 (a.u.)^3
     number of atoms/cell      =            2
     number of atomic types    =            2
     number of electrons       =        31.00
     number of Kohn-Sham states=           20
     kinetic-energy cutoff     =      90.0000  Ry
     charge density cutoff     =    1080.0000  Ry
     scf convergence threshold =      1.0E-08
     mixing beta               =       0.2000
     number of iterations used =            8  plain     mixing
     energy convergence thresh.=      1.0E-05
     force convergence thresh. =      1.0E-04
     press convergence thresh. =      1.0E-01
     Exchange-correlation= SLA  PW   PBE  PBE
                           (   1   4   3   4   0   0   0)
     nstep                     =          100


     celldm(1)=   6.760804  celldm(2)=   0.000000  celldm(3)=   0.000000
     celldm(4)=   0.000000  celldm(5)=   0.000000  celldm(6)=   0.000000

     crystal axes: (cart. coord. in units of alat)
               a(1) = (  -0.500000   0.000000   0.500000 )  
               a(2) = (   0.000000   0.500000   0.500000 )  
               a(3) = (  -0.500000   0.500000   0.000000 )  

     reciprocal axes: (cart. coord. in units 2 pi/alat)
               b(1) = ( -1.000000 -1.000000  1.000000 )  
               b(2) = (  1.000000  1.000000  1.000000 )  
               b(3) = ( -1.000000  1.000000 -1.000000 )  


     PseudoPot. # 1 for Cr read from file:
     /opt/QEpot/SSSP_efficiency_pseudos/cr_pbe_v1.5.uspp.F.UPF
     MD5 check sum: 0d52af634a40206e4dee301ad30da4bf
     Pseudo is Ultrasoft + core correction, Zval = 14.0
     Generated by new atomic code, or converted to UPF format
     Using radial grid of  857 points,  6 beta functions with: 
                l(1) =   0
                l(2) =   0
                l(3) =   1
                l(4) =   1
                l(5) =   2
                l(6) =   2
     Q(r) pseudized with  8 coefficients,  rinner =    0.950   0.950   0.950
                                                       0.950   0.950

     PseudoPot. # 2 for Co read from file:
     /opt/QEpot/SSSP_efficiency_pseudos/Co_pbe_v1.2.uspp.F.UPF
     MD5 check sum: 5f91765df6ddd3222702df6e7b74a16d
     Pseudo is Ultrasoft + core correction, Zval = 17.0
     Generated by new atomic code, or converted to UPF format
     Using radial grid of  863 points,  6 beta functions with: 
                l(1) =   0
                l(2) =   0
                l(3) =   1
                l(4) =   1
                l(5) =   2
                l(6) =   2
     Q(r) pseudized with  8 coefficients,  rinner =    1.200   1.200   1.200
                                                       1.200   1.200

     atomic species   valence    mass     pseudopotential
        Cr            14.00    51.99610     Cr( 1.00)
        Co            17.00    58.93300     Co( 1.00)

     Starting magnetic structure 
     atomic species   magnetization
        Cr           0.200
        Co           0.200

     No symmetry found



   Cartesian axes

     site n.     atom                  positions (alat units)
         1           Cr  tau(   1) = (   0.5000000   0.5000000   0.5000000  )
         2           Co  tau(   2) = (   0.0000000   0.0000000   0.0000000  )

     number of k points=   504  Gaussian smearing, width (Ry)=  0.0100

     Number of k-points >= 100: set verbosity='high' to print them.

     Dense  grid:    45911 G-vectors     FFT dimensions: (  50,  50,  50)

     Smooth grid:     8873 G-vectors     FFT dimensions: (  30,  30,  30)

     Estimated max dynamical RAM per process >      54.93 MB

     Estimated total dynamical RAM >     659.17 MB

     Check: negative core charge=   -0.000015
     Generating pointlists ...
     new r_m :   0.2063 (alat units)  1.3944 (a.u.) for type    1
     new r_m :   0.2063 (alat units)  1.3944 (a.u.) for type    2

     Initial potential from superposition of free atoms

     starting charge   28.99998, renormalised to   31.00000

     negative rho (up, down):  5.370E-04 3.580E-04
     Starting wfcs are   23 randomized atomic wfcs

     total cpu time spent up to now is        8.2 secs

     Self-consistent Calculation

     iteration #  1     ecut=    90.00 Ry     beta= 0.20
     Davidson diagonalization with overlap
     ethr =  1.00E-02,  avg # of iterations =  2.6

     negative rho (up, down):  2.315E-04 2.449E-04

     total cpu time spent up to now is       17.9 secs

     total energy              =    -470.83445000 Ry
     estimated scf accuracy    <      10.71204840 Ry

     total magnetization       =     1.95 Bohr mag/cell
     absolute magnetization    =     1.95 Bohr mag/cell

     iteration #  2     ecut=    90.00 Ry     beta= 0.20
     Davidson diagonalization with overlap
     ethr =  1.00E-02,  avg # of iterations =  2.3

     negative rho (up, down):  3.563E-04 4.632E-04

     total cpu time spent up to now is       26.7 secs

     total energy              =    -472.47141885 Ry
     estimated scf accuracy    <       2.51448735 Ry

     total magnetization       =     1.41 Bohr mag/cell
     absolute magnetization    =     1.41 Bohr mag/cell

     iteration #  3     ecut=    90.00 Ry     beta= 0.20
     Davidson diagonalization with overlap
     ethr =  8.11E-03,  avg # of iterations =  1.0

     negative rho (up, down):  3.349E-04 9.438E-04

     total cpu time spent up to now is       33.3 secs

     total energy              =    -472.48087412 Ry
     estimated scf accuracy    <       0.54837866 Ry

     total magnetization       =     1.44 Bohr mag/cell
     absolute magnetization    =     1.44 Bohr mag/cell

     iteration #  4     ecut=    90.00 Ry     beta= 0.20
     Davidson diagonalization with overlap
     ethr =  1.77E-03,  avg # of iterations =  2.0

     negative rho (up, down):  2.466E-04 8.267E-04

     total cpu time spent up to now is       42.0 secs

     total energy              =    -472.60406616 Ry
     estimated scf accuracy    <       0.37935739 Ry

     total magnetization       =     1.11 Bohr mag/cell
     absolute magnetization    =     1.13 Bohr mag/cell

     iteration #  5     ecut=    90.00 Ry     beta= 0.20
     Davidson diagonalization with overlap
     ethr =  1.22E-03,  avg # of iterations =  1.0

     negative rho (up, down):  4.335E-05 8.831E-04

     total cpu time spent up to now is       48.6 secs

     total energy              =    -472.66280959 Ry
     estimated scf accuracy    <       0.08635615 Ry

     total magnetization       =     0.99 Bohr mag/cell
     absolute magnetization    =     1.00 Bohr mag/cell

     iteration #  6     ecut=    90.00 Ry     beta= 0.20
     Davidson diagonalization with overlap
     ethr =  2.79E-04,  avg # of iterations =  2.2

     negative rho (up, down):  4.952E-05 7.831E-04

     total cpu time spent up to now is       57.7 secs

     total energy              =    -472.56081610 Ry
     estimated scf accuracy    <       1.28724720 Ry

     total magnetization       =    -0.00 Bohr mag/cell
     absolute magnetization    =     0.25 Bohr mag/cell

     iteration #  7     ecut=    90.00 Ry     beta= 0.20
     Davidson diagonalization with overlap
     ethr =  2.79E-04,  avg # of iterations =  2.3

     negative rho (up, down):  7.298E-05 7.311E-04

     total cpu time spent up to now is       66.7 secs

     total energy              =    -472.67279618 Ry
     estimated scf accuracy    <       0.00627275 Ry

     total magnetization       =     0.14 Bohr mag/cell
     absolute magnetization    =     0.22 Bohr mag/cell

     iteration #  8     ecut=    90.00 Ry     beta= 0.20
     Davidson diagonalization with overlap
     ethr =  2.02E-05,  avg # of iterations =  2.0

     negative rho (up, down):  3.442E-04 4.801E-04

     total cpu time spent up to now is       74.9 secs

     total energy              =    -472.67422535 Ry
     estimated scf accuracy    <       0.02019594 Ry

     total magnetization       =     0.26 Bohr mag/cell
     absolute magnetization    =     0.28 Bohr mag/cell

     iteration #  9     ecut=    90.00 Ry     beta= 0.20
     Davidson diagonalization with overlap
     ethr =  2.02E-05,  avg # of iterations =  1.5

     negative rho (up, down):  3.487E-04 4.716E-04

     total cpu time spent up to now is       82.3 secs

     total energy              =    -472.67547649 Ry
     estimated scf accuracy    <       0.02178202 Ry

     total magnetization       =     0.04 Bohr mag/cell
     absolute magnetization    =     0.09 Bohr mag/cell

     iteration # 10     ecut=    90.00 Ry     beta= 0.20
     Davidson diagonalization with overlap
     ethr =  2.02E-05,  avg # of iterations =  1.0

     negative rho (up, down):  3.707E-04 4.512E-04

     total cpu time spent up to now is       88.9 secs

     total energy              =    -472.67544469 Ry
     estimated scf accuracy    <       0.01642700 Ry

     total magnetization       =     0.04 Bohr mag/cell
     absolute magnetization    =     0.08 Bohr mag/cell

     iteration # 11     ecut=    90.00 Ry     beta= 0.20
     Davidson diagonalization with overlap
     ethr =  2.02E-05,  avg # of iterations =  1.0

     negative rho (up, down):  4.281E-04 3.749E-04

     total cpu time spent up to now is       95.5 secs

     total energy              =    -472.67228745 Ry
     estimated scf accuracy    <       0.01468219 Ry

     total magnetization       =     0.02 Bohr mag/cell
     absolute magnetization    =     0.06 Bohr mag/cell

     iteration # 12     ecut=    90.00 Ry     beta= 0.20
     Davidson diagonalization with overlap
     ethr =  2.02E-05,  avg # of iterations =  1.8

     negative rho (up, down):  4.046E-04 3.949E-04

     total cpu time spent up to now is      102.8 secs

     total energy              =    -472.67395124 Ry
     estimated scf accuracy    <       0.00004271 Ry

     total magnetization       =    -0.02 Bohr mag/cell
     absolute magnetization    =     0.02 Bohr mag/cell

     iteration # 13     ecut=    90.00 Ry     beta= 0.20
     Davidson diagonalization with overlap
     ethr =  1.38E-07,  avg # of iterations =  2.4

     negative rho (up, down):  3.960E-04 4.004E-04

     total cpu time spent up to now is      111.4 secs

     total energy              =    -472.67396907 Ry
     estimated scf accuracy    <       0.00005435 Ry

     total magnetization       =     0.00 Bohr mag/cell
     absolute magnetization    =     0.01 Bohr mag/cell

     iteration # 14     ecut=    90.00 Ry     beta= 0.20
     Davidson diagonalization with overlap
     ethr =  1.38E-07,  avg # of iterations =  1.1

     negative rho (up, down):  3.941E-04 3.968E-04

     total cpu time spent up to now is      118.1 secs

     total energy              =    -472.67397358 Ry
     estimated scf accuracy    <       0.00000335 Ry

     total magnetization       =     0.01 Bohr mag/cell
     absolute magnetization    =     0.01 Bohr mag/cell

     iteration # 15     ecut=    90.00 Ry     beta= 0.20
     Davidson diagonalization with overlap
     ethr =  1.08E-08,  avg # of iterations =  1.9

     negative rho (up, down):  3.944E-04 3.964E-04

     total cpu time spent up to now is      125.7 secs

     total energy              =    -472.67397559 Ry
     estimated scf accuracy    <       0.00000175 Ry

     total magnetization       =    -0.00 Bohr mag/cell
     absolute magnetization    =     0.00 Bohr mag/cell

     iteration # 16     ecut=    90.00 Ry     beta= 0.20
     Davidson diagonalization with overlap
     ethr =  5.65E-09,  avg # of iterations =  1.1

     negative rho (up, down):  3.966E-04 3.954E-04

     total cpu time spent up to now is      132.4 secs

     total energy              =    -472.67397574 Ry
     estimated scf accuracy    <       0.00000010 Ry

     total magnetization       =    -0.00 Bohr mag/cell
     absolute magnetization    =     0.00 Bohr mag/cell

     iteration # 17     ecut=    90.00 Ry     beta= 0.20
     Davidson diagonalization with overlap
     ethr =  3.11E-10,  avg # of iterations =  2.0

     negative rho (up, down):  3.966E-04 3.960E-04

     total cpu time spent up to now is      140.0 secs

     total energy              =    -472.67397575 Ry
     estimated scf accuracy    <       0.00000005 Ry

     total magnetization       =    -0.00 Bohr mag/cell
     absolute magnetization    =     0.00 Bohr mag/cell

     iteration # 18     ecut=    90.00 Ry     beta= 0.20
     Davidson diagonalization with overlap
     ethr =  1.50E-10,  avg # of iterations =  2.0

     negative rho (up, down):  3.960E-04 3.961E-04

     total cpu time spent up to now is      147.7 secs

     total energy              =    -472.67397579 Ry
     estimated scf accuracy    <       0.00000004 Ry

     total magnetization       =     0.00 Bohr mag/cell
     absolute magnetization    =     0.00 Bohr mag/cell

     iteration # 19     ecut=    90.00 Ry     beta= 0.20
     Davidson diagonalization with overlap
     ethr =  1.32E-10,  avg # of iterations =  1.9

     negative rho (up, down):  3.960E-04 3.961E-04

     Magnetic moment per site:
     atom:    1    charge:   11.0597    magn:    0.0001    constr:    0.0000
     atom:    2    charge:   14.4041    magn:    0.0000    constr:    0.0000

     total cpu time spent up to now is      155.6 secs

     End of self-consistent calculation

     Number of k-points >= 100: set verbosity='high' to print the bands.

     the Fermi energy is    41.1182 ev

!    total energy              =    -472.67397581 Ry
     estimated scf accuracy    <          7.4E-10 Ry
     smearing contrib. (-TS)   =      -0.00111427 Ry
     internal energy E=F+TS    =    -472.67286154 Ry

     The total energy is F=E-TS. E is the sum of the following terms:
     one-electron contribution =    -104.38664390 Ry
     hartree contribution      =      94.65828121 Ry
     xc contribution           =     -57.31658354 Ry
     ewald contribution        =    -405.62791531 Ry

     total magnetization       =     0.00 Bohr mag/cell
     absolute magnetization    =     0.00 Bohr mag/cell

     convergence has been achieved in  19 iterations

     negative rho (up, down):  3.960E-04 3.961E-04

     Forces acting on atoms (cartesian axes, Ry/au):

     atom    1 type  1   force =     0.00000044    0.00000015   -0.00000021
     atom    2 type  2   force =    -0.00000044   -0.00000015    0.00000021

     Total force =     0.000001     Total SCF correction =     0.000002
     SCF correction compared to forces is large: reduce conv_thr to get better values


     Computing stress (Cartesian axis) and pressure


     negative rho (up, down):  3.960E-04 3.961E-04
          total   stress  (Ry/bohr**3)                   (kbar)     P=     7559.02
   0.05138515  -0.00000000  -0.00000000         7559.02       -0.00       -0.00
  -0.00000000   0.05138514  -0.00000000           -0.00     7559.01       -0.00
  -0.00000000  -0.00000000   0.05138515           -0.00       -0.00     7559.02


     BFGS Geometry Optimization
     Energy error            =      0.0E+00
     Gradient error          =      4.4E-07
     Cell gradient error     =      5.1E-02


     number of scf cycles    =   1
     number of bfgs steps    =   0

     enthalpy new            =    -472.6739758102 Ry

     new trust radius        =       0.5000000000 bohr
     new conv_thr            =       0.0000000100 Ry

     new unit-cell volume =    163.70594 a.u.^3 (    24.25872 Ang^3 )
     density =      7.59323 g/cm^3

CELL_PARAMETERS (alat=  6.76080431)
  -0.642214035  -0.000000002   0.642214048
  -0.000000013   0.642213984   0.642214033
  -0.642214026   0.642213990   0.000000007

ATOMIC_POSITIONS (alat)
Cr            0.6422140300        0.6422139889        0.6422140130
Co           -0.0000000186       -0.0000000062        0.0000000088



     Writing output data file ./pwscf.save/
     NEW-OLD atomic charge density approx. for the potential

     Check: negative core charge=   -0.000034

     negative rho (up, down):  2.546E-04 2.546E-04
     extrapolated charge   46.31424, renormalised to   31.00000
     Generating pointlists ...

     total cpu time spent up to now is      159.3 secs

     Self-consistent Calculation

     iteration #  1     ecut=    90.00 Ry     beta= 0.20
     Davidson diagonalization with overlap
     c_bands:  1 eigenvalues not converged
     c_bands:  1 eigenvalues not converged
     c_bands:  1 eigenvalues not converged
     c_bands:  1 eigenvalues not converged
     c_bands:  2 eigenvalues not converged
     c_bands:  1 eigenvalues not converged
     c_bands:  1 eigenvalues not converged
     c_bands:  1 eigenvalues not converged
     c_bands:  2 eigenvalues not converged
     c_bands:  1 eigenvalues not converged
     c_bands:  1 eigenvalues not converged
     c_bands:  1 eigenvalues not converged
     c_bands:  1 eigenvalues not converged
     c_bands:  1 eigenvalues not converged
     c_bands:  1 eigenvalues not converged
     c_bands:  1 eigenvalues not converged
     c_bands:  1 eigenvalues not converged
     c_bands:  2 eigenvalues not converged
     c_bands:  1 eigenvalues not converged
     c_bands:  1 eigenvalues not converged
     c_bands:  1 eigenvalues not converged
     c_bands:  1 eigenvalues not converged
     c_bands:  1 eigenvalues not converged
     c_bands:  1 eigenvalues not converged
     c_bands:  2 eigenvalues not converged
     c_bands:  2 eigenvalues not converged
     c_bands:  2 eigenvalues not converged
     c_bands:  2 eigenvalues not converged
     c_bands:  1 eigenvalues not converged
     c_bands:  1 eigenvalues not converged
     c_bands:  2 eigenvalues not converged
     c_bands:  1 eigenvalues not converged
     c_bands:  1 eigenvalues not converged
     c_bands:  2 eigenvalues not converged
     c_bands:  2 eigenvalues not converged
     c_bands:  2 eigenvalues not converged
     c_bands:  2 eigenvalues not converged
     c_bands:  1 eigenvalues not converged
     c_bands:  1 eigenvalues not converged
     c_bands:  1 eigenvalues not converged
     c_bands:  2 eigenvalues not converged
     c_bands:  2 eigenvalues not converged
     c_bands:  2 eigenvalues not converged
     c_bands:  2 eigenvalues not converged
     c_bands:  2 eigenvalues not converged
     c_bands:  2 eigenvalues not converged
     c_bands:  1 eigenvalues not converged
     c_bands:  1 eigenvalues not converged
     c_bands:  1 eigenvalues not converged
     c_bands:  1 eigenvalues not converged
     c_bands:  1 eigenvalues not converged
     c_bands:  2 eigenvalues not converged
     c_bands:  2 eigenvalues not converged
     c_bands:  2 eigenvalues not converged
     c_bands:  2 eigenvalues not converged
     c_bands:  2 eigenvalues not converged
     c_bands:  2 eigenvalues not converged
     c_bands:  1 eigenvalues not converged
     c_bands:  1 eigenvalues not converged
     c_bands:  2 eigenvalues not converged
     c_bands:  2 eigenvalues not converged
     c_bands:  1 eigenvalues not converged
     c_bands:  2 eigenvalues not converged
     c_bands:  1 eigenvalues not converged
     c_bands:  1 eigenvalues not converged
     c_bands:  2 eigenvalues not converged
     c_bands:  2 eigenvalues not converged
     c_bands:  2 eigenvalues not converged
     c_bands:  1 eigenvalues not converged
     c_bands:  1 eigenvalues not converged
     c_bands:  2 eigenvalues not converged
     c_bands:  2 eigenvalues not converged
     c_bands:  1 eigenvalues not converged
     c_bands:  1 eigenvalues not converged
     c_bands:  1 eigenvalues not converged
     c_bands:  2 eigenvalues not converged
     c_bands:  1 eigenvalues not converged
     c_bands:  1 eigenvalues not converged
     c_bands:  1 eigenvalues not converged
     c_bands:  2 eigenvalues not converged
     c_bands:  2 eigenvalues not converged
     c_bands:  2 eigenvalues not converged
     c_bands:  1 eigenvalues not converged
     c_bands:  1 eigenvalues not converged
     c_bands:  2 eigenvalues not converged
     c_bands:  2 eigenvalues not converged
     c_bands:  2 eigenvalues not converged
     c_bands:  2 eigenvalues not converged
     c_bands:  2 eigenvalues not converged
     c_bands:  1 eigenvalues not converged
     c_bands:  2 eigenvalues not converged
     c_bands:  2 eigenvalues not converged
     c_bands:  2 eigenvalues not converged
     c_bands:  2 eigenvalues not converged
     c_bands:  2 eigenvalues not converged
     c_bands:  2 eigenvalues not converged
     c_bands:  2 eigenvalues not converged
     c_bands:  1 eigenvalues not converged
     c_bands:  2 eigenvalues not converged
     c_bands:  2 eigenvalues not converged
     c_bands:  2 eigenvalues not converged
     c_bands:  1 eigenvalues not converged
     c_bands:  2 eigenvalues not converged
     c_bands:  2 eigenvalues not converged
     c_bands:  2 eigenvalues not converged
     c_bands:  2 eigenvalues not converged
     c_bands:  2 eigenvalues not converged
     c_bands:  1 eigenvalues not converged
     c_bands:  1 eigenvalues not converged
     c_bands:  2 eigenvalues not converged
     c_bands:  2 eigenvalues not converged
     c_bands:  2 eigenvalues not converged
     c_bands:  2 eigenvalues not converged
     c_bands:  1 eigenvalues not converged
     c_bands:  1 eigenvalues not converged
     c_bands:  1 eigenvalues not converged
     c_bands:  1 eigenvalues not converged
     c_bands:  1 eigenvalues not converged
     c_bands:  1 eigenvalues not converged
     c_bands:  2 eigenvalues not converged
     c_bands:  2 eigenvalues not converged
     c_bands:  2 eigenvalues not converged
     c_bands:  2 eigenvalues not converged
     c_bands:  1 eigenvalues not converged
     c_bands:  2 eigenvalues not converged
     c_bands:  1 eigenvalues not converged
     c_bands:  1 eigenvalues not converged
     c_bands:  1 eigenvalues not converged
     c_bands:  2 eigenvalues not converged
     c_bands:  2 eigenvalues not converged
     c_bands:  2 eigenvalues not converged
     c_bands:  1 eigenvalues not converged
     c_bands:  1 eigenvalues not converged
     c_bands:  1 eigenvalues not converged
     c_bands:  2 eigenvalues not converged
     c_bands:  1 eigenvalues not converged
     c_bands:  2 eigenvalues not converged
     c_bands:  1 eigenvalues not converged
     c_bands:  2 eigenvalues not converged
     c_bands:  2 eigenvalues not converged
     c_bands:  1 eigenvalues not converged
     c_bands:  2 eigenvalues not converged
     c_bands:  2 eigenvalues not converged
     c_bands:  2 eigenvalues not converged
     c_bands:  2 eigenvalues not converged
     c_bands:  1 eigenvalues not converged
     c_bands:  1 eigenvalues not converged
     c_bands:  2 eigenvalues not converged
     c_bands:  1 eigenvalues not converged
     c_bands:  2 eigenvalues not converged
     c_bands:  2 eigenvalues not converged
     c_bands:  1 eigenvalues not converged
     c_bands:  1 eigenvalues not converged
     c_bands:  2 eigenvalues not converged
     c_bands:  1 eigenvalues not converged
     c_bands:  1 eigenvalues not converged
     c_bands:  2 eigenvalues not converged
     c_bands:  2 eigenvalues not converged
     c_bands:  2 eigenvalues not converged
     c_bands:  2 eigenvalues not converged
     c_bands:  2 eigenvalues not converged
     c_bands:  1 eigenvalues not converged
     c_bands:  1 eigenvalues not converged
     c_bands:  1 eigenvalues not converged
     c_bands:  2 eigenvalues not converged
     c_bands:  1 eigenvalues not converged
     c_bands:  1 eigenvalues not converged
     c_bands:  1 eigenvalues not converged
     c_bands:  2 eigenvalues not converged
     c_bands:  1 eigenvalues not converged
     c_bands:  1 eigenvalues not converged
     c_bands:  2 eigenvalues not converged
     c_bands:  2 eigenvalues not converged
     c_bands:  2 eigenvalues not converged
     c_bands:  2 eigenvalues not converged
     c_bands:  2 eigenvalues not converged
     c_bands:  1 eigenvalues not converged
     c_bands:  2 eigenvalues not converged
     c_bands:  1 eigenvalues not converged
     c_bands:  1 eigenvalues not converged
     c_bands:  2 eigenvalues not converged
     c_bands:  2 eigenvalues not converged
     c_bands:  2 eigenvalues not converged
     c_bands:  2 eigenvalues not converged
     c_bands:  2 eigenvalues not converged
     c_bands:  2 eigenvalues not converged
     c_bands:  1 eigenvalues not converged
     c_bands:  1 eigenvalues not converged
     c_bands:  2 eigenvalues not converged
     c_bands:  1 eigenvalues not converged
     c_bands:  1 eigenvalues not converged
     c_bands:  2 eigenvalues not converged
     c_bands:  2 eigenvalues not converged
     c_bands:  2 eigenvalues not converged
     c_bands:  2 eigenvalues not converged
     c_bands:  2 eigenvalues not converged
     c_bands:  2 eigenvalues not converged
     c_bands:  2 eigenvalues not converged
     c_bands:  2 eigenvalues not converged
     c_bands:  2 eigenvalues not converged
     c_bands:  2 eigenvalues not converged
     c_bands:  1 eigenvalues not converged
     c_bands:  2 eigenvalues not converged
     c_bands:  2 eigenvalues not converged
     c_bands:  1 eigenvalues not converged
     c_bands:  2 eigenvalues not converged
     c_bands:  2 eigenvalues not converged
     c_bands:  2 eigenvalues not converged
     c_bands:  2 eigenvalues not converged
     c_bands:  1 eigenvalues not converged
     c_bands:  2 eigenvalues not converged
     c_bands:  2 eigenvalues not converged
     c_bands:  2 eigenvalues not converged
     c_bands:  2 eigenvalues not converged
     c_bands:  1 eigenvalues not converged
     c_bands:  1 eigenvalues not converged
     c_bands:  1 eigenvalues not converged
     c_bands:  1 eigenvalues not converged
     c_bands:  1 eigenvalues not converged
     c_bands:  2 eigenvalues not converged
     c_bands:  1 eigenvalues not converged
     c_bands:  1 eigenvalues not converged
     c_bands:  1 eigenvalues not converged
     c_bands:  2 eigenvalues not converged
     c_bands:  1 eigenvalues not converged
     c_bands:  1 eigenvalues not converged
     c_bands:  1 eigenvalues not converged
     c_bands:  1 eigenvalues not converged
     c_bands:  1 eigenvalues not converged
     c_bands:  1 eigenvalues not converged
     c_bands:  1 eigenvalues not converged
     c_bands:  1 eigenvalues not converged
     c_bands:  2 eigenvalues not converged
     c_bands:  1 eigenvalues not converged
     c_bands:  1 eigenvalues not converged
     c_bands:  1 eigenvalues not converged
     c_bands:  1 eigenvalues not converged
     c_bands:  1 eigenvalues not converged
     c_bands:  1 eigenvalues not converged
     c_bands:  2 eigenvalues not converged
     c_bands:  2 eigenvalues not converged
     c_bands:  2 eigenvalues not converged
     c_bands:  2 eigenvalues not converged
     c_bands:  1 eigenvalues not converged
     c_bands:  1 eigenvalues not converged
     c_bands:  2 eigenvalues not converged
     c_bands:  1 eigenvalues not converged
     c_bands:  1 eigenvalues not converged
     c_bands:  2 eigenvalues not converged
     c_bands:  2 eigenvalues not converged
     c_bands:  2 eigenvalues not converged
     c_bands:  2 eigenvalues not converged
     c_bands:  1 eigenvalues not converged
     c_bands:  1 eigenvalues not converged
     c_bands:  1 eigenvalues not converged
     c_bands:  2 eigenvalues not converged
     c_bands:  2 eigenvalues not converged
     c_bands:  2 eigenvalues not converged
     c_bands:  2 eigenvalues not converged
     c_bands:  2 eigenvalues not converged
     c_bands:  2 eigenvalues not converged
     c_bands:  1 eigenvalues not converged
     c_bands:  1 eigenvalues not converged
     c_bands:  1 eigenvalues not converged
     c_bands:  1 eigenvalues not converged
     c_bands:  1 eigenvalues not converged
     c_bands:  2 eigenvalues not converged
     c_bands:  2 eigenvalues not converged
     c_bands:  2 eigenvalues not converged
     c_bands:  2 eigenvalues not converged
     c_bands:  2 eigenvalues not converged
     c_bands:  2 eigenvalues not converged
     c_bands:  1 eigenvalues not converged
     c_bands:  1 eigenvalues not converged
     c_bands:  2 eigenvalues not converged
     c_bands:  2 eigenvalues not converged
     c_bands:  1 eigenvalues not converged
     c_bands:  2 eigenvalues not converged
     c_bands:  1 eigenvalues not converged
     c_bands:  1 eigenvalues not converged
     c_bands:  2 eigenvalues not converged
     c_bands:  2 eigenvalues not converged
     c_bands:  2 eigenvalues not converged
     c_bands:  1 eigenvalues not converged
     c_bands:  1 eigenvalues not converged
     c_bands:  2 eigenvalues not converged
     c_bands:  2 eigenvalues not converged
     c_bands:  1 eigenvalues not converged
     c_bands:  1 eigenvalues not converged
     c_bands:  1 eigenvalues not converged
     c_bands:  2 eigenvalues not converged
     c_bands:  1 eigenvalues not converged
     c_bands:  1 eigenvalues not converged
     c_bands:  1 eigenvalues not converged
     c_bands:  2 eigenvalues not converged
     c_bands:  2 eigenvalues not converged
     c_bands:  2 eigenvalues not converged
     c_bands:  1 eigenvalues not converged
     c_bands:  1 eigenvalues not converged
     c_bands:  2 eigenvalues not converged
     c_bands:  2 eigenvalues not converged
     c_bands:  2 eigenvalues not converged
     c_bands:  2 eigenvalues not converged
     c_bands:  2 eigenvalues not converged
     c_bands:  1 eigenvalues not converged
     c_bands:  2 eigenvalues not converged
     c_bands:  2 eigenvalues not converged
     c_bands:  2 eigenvalues not converged
     c_bands:  2 eigenvalues not converged
     c_bands:  2 eigenvalues not converged
     c_bands:  2 eigenvalues not converged
     c_bands:  2 eigenvalues not converged
     c_bands:  1 eigenvalues not converged
     c_bands:  2 eigenvalues not converged
     c_bands:  2 eigenvalues not converged
     c_bands:  2 eigenvalues not converged
     c_bands:  1 eigenvalues not converged
     c_bands:  2 eigenvalues not converged
     c_bands:  2 eigenvalues not converged
     c_bands:  2 eigenvalues not converged
     c_bands:  2 eigenvalues not converged
     c_bands:  2 eigenvalues not converged
     c_bands:  1 eigenvalues not converged
     c_bands:  1 eigenvalues not converged
     c_bands:  2 eigenvalues not converged
     c_bands:  2 eigenvalues not converged
     c_bands:  2 eigenvalues not converged
     c_bands:  2 eigenvalues not converged
     c_bands:  1 eigenvalues not converged
     c_bands:  1 eigenvalues not converged
     c_bands:  1 eigenvalues not converged
     c_bands:  1 eigenvalues not converged
     c_bands:  1 eigenvalues not converged
     c_bands:  1 eigenvalues not converged
     c_bands:  2 eigenvalues not converged
     c_bands:  2 eigenvalues not converged
     c_bands:  2 eigenvalues not converged
     c_bands:  2 eigenvalues not converged
     c_bands:  1 eigenvalues not converged
     c_bands:  2 eigenvalues not converged
     c_bands:  1 eigenvalues not converged
     c_bands:  1 eigenvalues not converged
     c_bands:  1 eigenvalues not converged
     c_bands:  2 eigenvalues not converged
     c_bands:  2 eigenvalues not converged
     c_bands:  2 eigenvalues not converged
     c_bands:  1 eigenvalues not converged
     c_bands:  1 eigenvalues not converged
     c_bands:  1 eigenvalues not converged
     c_bands:  2 eigenvalues not converged
     c_bands:  1 eigenvalues not converged
     c_bands:  2 eigenvalues not converged
     c_bands:  1 eigenvalues not converged
     c_bands:  2 eigenvalues not converged
     c_bands:  2 eigenvalues not converged
     c_bands:  1 eigenvalues not converged
     c_bands:  2 eigenvalues not converged
     c_bands:  2 eigenvalues not converged
     c_bands:  2 eigenvalues not converged
     c_bands:  2 eigenvalues not converged
     c_bands:  1 eigenvalues not converged
     c_bands:  1 eigenvalues not converged
     c_bands:  2 eigenvalues not converged
     c_bands:  1 eigenvalues not converged
     c_bands:  2 eigenvalues not converged
     c_bands:  2 eigenvalues not converged
     c_bands:  1 eigenvalues not converged
     c_bands:  1 eigenvalues not converged
     c_bands:  2 eigenvalues not converged
     c_bands:  1 eigenvalues not converged
     c_bands:  1 eigenvalues not converged
     c_bands:  2 eigenvalues not converged
     c_bands:  2 eigenvalues not converged
     c_bands:  2 eigenvalues not converged
     c_bands:  2 eigenvalues not converged
     c_bands:  2 eigenvalues not converged
     c_bands:  1 eigenvalues not converged
     c_bands:  1 eigenvalues not converged
     c_bands:  1 eigenvalues not converged
     c_bands:  2 eigenvalues not converged
     c_bands:  1 eigenvalues not converged
     c_bands:  1 eigenvalues not converged
     c_bands:  1 eigenvalues not converged
     c_bands:  2 eigenvalues not converged
     c_bands:  1 eigenvalues not converged
     c_bands:  1 eigenvalues not converged
     c_bands:  2 eigenvalues not converged
     c_bands:  2 eigenvalues not converged
     c_bands:  2 eigenvalues not converged
     c_bands:  2 eigenvalues not converged
     c_bands:  2 eigenvalues not converged
     c_bands:  1 eigenvalues not converged
     c_bands:  2 eigenvalues not converged
     c_bands:  1 eigenvalues not converged
     c_bands:  1 eigenvalues not converged
     c_bands:  2 eigenvalues not converged
     c_bands:  2 eigenvalues not converged
     c_bands:  2 eigenvalues not converged
     c_bands:  2 eigenvalues not converged
     c_bands:  2 eigenvalues not converged
     c_bands:  2 eigenvalues not converged
     c_bands:  1 eigenvalues not converged
     c_bands:  1 eigenvalues not converged
     c_bands:  2 eigenvalues not converged
     c_bands:  1 eigenvalues not converged
     c_bands:  1 eigenvalues not converged
     c_bands:  2 eigenvalues not converged
     c_bands:  2 eigenvalues not converged
     c_bands:  2 eigenvalues not converged
     c_bands:  2 eigenvalues not converged
     c_bands:  2 eigenvalues not converged
     c_bands:  2 eigenvalues not converged
     c_bands:  2 eigenvalues not converged
     c_bands:  2 eigenvalues not converged
     c_bands:  2 eigenvalues not converged
     c_bands:  2 eigenvalues not converged
     c_bands:  1 eigenvalues not converged
     c_bands:  2 eigenvalues not converged
     c_bands:  2 eigenvalues not converged
     c_bands:  1 eigenvalues not converged
     c_bands:  2 eigenvalues not converged
     c_bands:  2 eigenvalues not converged
     c_bands:  2 eigenvalues not converged
     c_bands:  2 eigenvalues not converged
     c_bands:  1 eigenvalues not converged
     c_bands:  2 eigenvalues not converged
     c_bands:  2 eigenvalues not converged
     c_bands:  2 eigenvalues not converged
     c_bands:  2 eigenvalues not converged
     c_bands:  1 eigenvalues not converged
     ethr =  1.00E-06,  avg # of iterations = 18.3

     negative rho (up, down):  8.424E-04 8.426E-04

     total cpu time spent up to now is      199.4 secs

     total energy              =    -410.28425530 Ry
     estimated scf accuracy    <      64.44555967 Ry

     total magnetization       =     0.00 Bohr mag/cell
     absolute magnetization    =     0.00 Bohr mag/cell

     iteration #  2     ecut=    90.00 Ry     beta= 0.20
     Davidson diagonalization with overlap
     ethr =  1.00E-02,  avg # of iterations =  5.8

     negative rho (up, down):  2.987E-04 2.990E-04

     total cpu time spent up to now is      215.1 secs

     total energy              =    -484.05173927 Ry
     estimated scf accuracy    <      49.20911682 Ry

     total magnetization       =     0.00 Bohr mag/cell
     absolute magnetization    =     0.00 Bohr mag/cell

     iteration #  3     ecut=    90.00 Ry     beta= 0.20
     Davidson diagonalization with overlap
     ethr =  1.00E-02,  avg # of iterations =  2.2

     negative rho (up, down):  1.548E-04 1.549E-04

     total cpu time spent up to now is      223.4 secs

     total energy              =    -472.40152238 Ry
     estimated scf accuracy    <      32.07318143 Ry

     total magnetization       =     0.00 Bohr mag/cell
     absolute magnetization    =     0.00 Bohr mag/cell

     iteration #  4     ecut=    90.00 Ry     beta= 0.20
     Davidson diagonalization with overlap
     ethr =  1.00E-02,  avg # of iterations =  2.0

     negative rho (up, down):  1.361E-04 1.361E-04

     total cpu time spent up to now is      232.5 secs

     total energy              =    -473.88659295 Ry
     estimated scf accuracy    <       4.20025125 Ry

     total magnetization       =     0.00 Bohr mag/cell
     absolute magnetization    =     0.00 Bohr mag/cell

     iteration #  5     ecut=    90.00 Ry     beta= 0.20
     Davidson diagonalization with overlap
     ethr =  1.00E-02,  avg # of iterations =  2.0

     negative rho (up, down):  1.166E-04 1.167E-04

     total cpu time spent up to now is      240.0 secs

     total energy              =    -474.19235212 Ry
     estimated scf accuracy    <      15.47724166 Ry

     total magnetization       =     0.00 Bohr mag/cell
     absolute magnetization    =     0.00 Bohr mag/cell

     iteration #  6     ecut=    90.00 Ry     beta= 0.20
     Davidson diagonalization with overlap
     ethr =  1.00E-02,  avg # of iterations =  1.1

     negative rho (up, down):  1.219E-04 1.219E-04

     total cpu time spent up to now is      246.7 secs

     total energy              =    -472.99434539 Ry
     estimated scf accuracy    <      11.80075245 Ry

     total magnetization       =     0.00 Bohr mag/cell
     absolute magnetization    =     0.00 Bohr mag/cell

     iteration #  7     ecut=    90.00 Ry     beta= 0.20
     Davidson diagonalization with overlap
     ethr =  1.00E-02,  avg # of iterations =  1.8

     negative rho (up, down):  1.227E-04 1.227E-04

     total cpu time spent up to now is      254.0 secs

     total energy              =    -474.02439087 Ry
     estimated scf accuracy    <       1.66316517 Ry

     total magnetization       =     0.00 Bohr mag/cell
     absolute magnetization    =     0.00 Bohr mag/cell

     iteration #  8     ecut=    90.00 Ry     beta= 0.20
     Davidson diagonalization with overlap
     ethr =  5.37E-03,  avg # of iterations =  1.0

     negative rho (up, down):  1.224E-04 1.224E-04

     total cpu time spent up to now is      260.7 secs

     total energy              =    -473.93040716 Ry
     estimated scf accuracy    <       1.75709286 Ry

     total magnetization       =     0.00 Bohr mag/cell
     absolute magnetization    =     0.00 Bohr mag/cell

     iteration #  9     ecut=    90.00 Ry     beta= 0.20
     Davidson diagonalization with overlap
     ethr =  5.37E-03,  avg # of iterations =  1.0

     negative rho (up, down):  1.374E-04 1.374E-04

     total cpu time spent up to now is      267.3 secs

     total energy              =    -473.58348315 Ry
     estimated scf accuracy    <       0.91301334 Ry

     total magnetization       =     0.00 Bohr mag/cell
     absolute magnetization    =     0.00 Bohr mag/cell

     iteration # 10     ecut=    90.00 Ry     beta= 0.20
     Davidson diagonalization with overlap
     ethr =  2.95E-03,  avg # of iterations =  2.0

     negative rho (up, down):  1.648E-04 1.647E-04

     total cpu time spent up to now is      274.9 secs

     total energy              =    -474.36713987 Ry
     estimated scf accuracy    <      13.38236549 Ry

     total magnetization       =     0.00 Bohr mag/cell
     absolute magnetization    =     0.00 Bohr mag/cell

     iteration # 11     ecut=    90.00 Ry     beta= 0.20
     Davidson diagonalization with overlap
     ethr =  2.95E-03,  avg # of iterations =  1.1

     negative rho (up, down):  1.682E-04 1.682E-04

     total cpu time spent up to now is      281.6 secs

     total energy              =    -474.17651988 Ry
     estimated scf accuracy    <      12.90883227 Ry

     total magnetization       =    -0.00 Bohr mag/cell
     absolute magnetization    =     0.00 Bohr mag/cell

     iteration # 12     ecut=    90.00 Ry     beta= 0.20
     Davidson diagonalization with overlap
     ethr =  2.95E-03,  avg # of iterations =  1.0

     negative rho (up, down):  1.911E-04 1.911E-04

     total cpu time spent up to now is      288.3 secs

     total energy              =    -473.13630130 Ry
     estimated scf accuracy    <       9.30177708 Ry

     total magnetization       =     0.00 Bohr mag/cell
     absolute magnetization    =     0.00 Bohr mag/cell

     iteration # 13     ecut=    90.00 Ry     beta= 0.20
     Davidson diagonalization with overlap
     ethr =  2.95E-03,  avg # of iterations =  2.4

     negative rho (up, down):  2.029E-04 2.029E-04

     total cpu time spent up to now is      296.5 secs

     total energy              =    -473.82962431 Ry
     estimated scf accuracy    <       1.17125709 Ry

     total magnetization       =    -0.00 Bohr mag/cell
     absolute magnetization    =     0.00 Bohr mag/cell

     iteration # 14     ecut=    90.00 Ry     beta= 0.20
     Davidson diagonalization with overlap
     ethr =  2.95E-03,  avg # of iterations =  1.0

     negative rho (up, down):  2.181E-04 2.181E-04

     total cpu time spent up to now is      303.2 secs

     total energy              =    -473.86023713 Ry
     estimated scf accuracy    <       0.19109617 Ry

     total magnetization       =    -0.00 Bohr mag/cell
     absolute magnetization    =     0.00 Bohr mag/cell

     iteration # 15     ecut=    90.00 Ry     beta= 0.20
     Davidson diagonalization with overlap
     ethr =  6.16E-04,  avg # of iterations =  1.0

     negative rho (up, down):  2.190E-04 2.190E-04

     total cpu time spent up to now is      309.8 secs

     total energy              =    -473.85271836 Ry
     estimated scf accuracy    <       0.30245464 Ry

     total magnetization       =     0.00 Bohr mag/cell
     absolute magnetization    =     0.00 Bohr mag/cell

     iteration # 16     ecut=    90.00 Ry     beta= 0.20
     Davidson diagonalization with overlap
     ethr =  6.16E-04,  avg # of iterations =  1.0

     negative rho (up, down):  2.120E-04 2.120E-04

     total cpu time spent up to now is      316.5 secs

     total energy              =    -473.84766250 Ry
     estimated scf accuracy    <       0.14014765 Ry

     total magnetization       =     0.00 Bohr mag/cell
     absolute magnetization    =     0.00 Bohr mag/cell

     iteration # 17     ecut=    90.00 Ry     beta= 0.20
     Davidson diagonalization with overlap
     ethr =  4.52E-04,  avg # of iterations =  1.0

     negative rho (up, down):  2.061E-04 2.061E-04

     total cpu time spent up to now is      323.2 secs

     total energy              =    -473.84339233 Ry
     estimated scf accuracy    <       0.05033976 Ry

     total magnetization       =    -0.00 Bohr mag/cell
     absolute magnetization    =     0.00 Bohr mag/cell

     iteration # 18     ecut=    90.00 Ry     beta= 0.20
     Davidson diagonalization with overlap
     ethr =  1.62E-04,  avg # of iterations =  1.1

     negative rho (up, down):  2.087E-04 2.087E-04

     total cpu time spent up to now is      330.0 secs

     total energy              =    -473.84754386 Ry
     estimated scf accuracy    <       0.00444695 Ry

     total magnetization       =    -0.00 Bohr mag/cell
     absolute magnetization    =     0.00 Bohr mag/cell

     iteration # 19     ecut=    90.00 Ry     beta= 0.20
     Davidson diagonalization with overlap
     ethr =  1.43E-05,  avg # of iterations =  1.4

     negative rho (up, down):  2.090E-04 2.090E-04

     total cpu time spent up to now is      336.9 secs

     total energy              =    -473.84670467 Ry
     estimated scf accuracy    <       0.01843629 Ry

     total magnetization       =    -0.00 Bohr mag/cell
     absolute magnetization    =     0.00 Bohr mag/cell

     iteration # 20     ecut=    90.00 Ry     beta= 0.20
     Davidson diagonalization with overlap
     ethr =  1.43E-05,  avg # of iterations =  1.0

     negative rho (up, down):  2.091E-04 2.090E-04

     total cpu time spent up to now is      343.5 secs

     total energy              =    -473.84691845 Ry
     estimated scf accuracy    <       0.00228716 Ry

     total magnetization       =    -0.00 Bohr mag/cell
     absolute magnetization    =     0.00 Bohr mag/cell

     iteration # 21     ecut=    90.00 Ry     beta= 0.20
     Davidson diagonalization with overlap
     ethr =  7.38E-06,  avg # of iterations =  1.1

     negative rho (up, down):  2.107E-04 2.106E-04

     total cpu time spent up to now is      350.3 secs

     total energy              =    -473.84691724 Ry
     estimated scf accuracy    <       0.00029977 Ry

     total magnetization       =    -0.00 Bohr mag/cell
     absolute magnetization    =     0.00 Bohr mag/cell

     iteration # 22     ecut=    90.00 Ry     beta= 0.20
     Davidson diagonalization with overlap
     ethr =  9.67E-07,  avg # of iterations =  1.7

     negative rho (up, down):  2.102E-04 2.102E-04

     total cpu time spent up to now is      357.4 secs

     total energy              =    -473.84694918 Ry
     estimated scf accuracy    <       0.00021265 Ry

     total magnetization       =    -0.00 Bohr mag/cell
     absolute magnetization    =     0.00 Bohr mag/cell

     iteration # 23     ecut=    90.00 Ry     beta= 0.20
     Davidson diagonalization with overlap
     ethr =  6.86E-07,  avg # of iterations =  1.0

     negative rho (up, down):  2.100E-04 2.100E-04

     total cpu time spent up to now is      364.0 secs

     total energy              =    -473.84694991 Ry
     estimated scf accuracy    <       0.00008223 Ry

     total magnetization       =    -0.00 Bohr mag/cell
     absolute magnetization    =     0.00 Bohr mag/cell

     iteration # 24     ecut=    90.00 Ry     beta= 0.20
     Davidson diagonalization with overlap
     ethr =  2.65E-07,  avg # of iterations =  1.0

     negative rho (up, down):  2.097E-04 2.097E-04

     total cpu time spent up to now is      370.6 secs

     total energy              =    -473.84694754 Ry
     estimated scf accuracy    <       0.00003007 Ry

     total magnetization       =    -0.00 Bohr mag/cell
     absolute magnetization    =     0.00 Bohr mag/cell

     iteration # 25     ecut=    90.00 Ry     beta= 0.20
     Davidson diagonalization with overlap
     ethr =  9.70E-08,  avg # of iterations =  1.0

     negative rho (up, down):  2.097E-04 2.096E-04

     total cpu time spent up to now is      377.3 secs

     total energy              =    -473.84694948 Ry
     estimated scf accuracy    <       0.00000155 Ry

     total magnetization       =    -0.00 Bohr mag/cell
     absolute magnetization    =     0.00 Bohr mag/cell

     iteration # 26     ecut=    90.00 Ry     beta= 0.20
     Davidson diagonalization with overlap
     ethr =  5.00E-09,  avg # of iterations =  1.9

     negative rho (up, down):  2.104E-04 2.103E-04

     total cpu time spent up to now is      384.6 secs

     total energy              =    -473.84694909 Ry
     estimated scf accuracy    <       0.00000167 Ry

     total magnetization       =    -0.00 Bohr mag/cell
     absolute magnetization    =     0.00 Bohr mag/cell

     iteration # 27     ecut=    90.00 Ry     beta= 0.20
     Davidson diagonalization with overlap
     ethr =  5.00E-09,  avg # of iterations =  2.0

     negative rho (up, down):  2.097E-04 2.097E-04

     total cpu time spent up to now is      392.7 secs

     total energy              =    -473.84694912 Ry
     estimated scf accuracy    <       0.00000178 Ry

     total magnetization       =    -0.00 Bohr mag/cell
     absolute magnetization    =     0.00 Bohr mag/cell

     iteration # 28     ecut=    90.00 Ry     beta= 0.20
     Davidson diagonalization with overlap
     ethr =  5.00E-09,  avg # of iterations =  1.5

     negative rho (up, down):  2.099E-04 2.098E-04

     total cpu time spent up to now is      399.6 secs

     total energy              =    -473.84694931 Ry
     estimated scf accuracy    <       0.00000248 Ry

     total magnetization       =    -0.00 Bohr mag/cell
     absolute magnetization    =     0.00 Bohr mag/cell

     iteration # 29     ecut=    90.00 Ry     beta= 0.20
     Davidson diagonalization with overlap
     ethr =  5.00E-09,  avg # of iterations =  1.0

     negative rho (up, down):  2.099E-04 2.098E-04

     total cpu time spent up to now is      406.3 secs

     total energy              =    -473.84694930 Ry
     estimated scf accuracy    <       0.00000033 Ry

     total magnetization       =    -0.00 Bohr mag/cell
     absolute magnetization    =     0.00 Bohr mag/cell

     iteration # 30     ecut=    90.00 Ry     beta= 0.20
     Davidson diagonalization with overlap
     ethr =  1.06E-09,  avg # of iterations =  2.0

     negative rho (up, down):  2.099E-04 2.099E-04

     total cpu time spent up to now is      414.8 secs

     total energy              =    -473.84694936 Ry
     estimated scf accuracy    <       0.00000014 Ry

     total magnetization       =    -0.00 Bohr mag/cell
     absolute magnetization    =     0.00 Bohr mag/cell

     iteration # 31     ecut=    90.00 Ry     beta= 0.20
     Davidson diagonalization with overlap
     ethr =  4.37E-10,  avg # of iterations =  1.0

     negative rho (up, down):  2.099E-04 2.099E-04

     total cpu time spent up to now is      421.4 secs

     total energy              =    -473.84694936 Ry
     estimated scf accuracy    <       0.00000001 Ry

     total magnetization       =    -0.00 Bohr mag/cell
     absolute magnetization    =     0.00 Bohr mag/cell

     iteration # 32     ecut=    90.00 Ry     beta= 0.20
     Davidson diagonalization with overlap
     ethr =  3.29E-11,  avg # of iterations =  2.0

     negative rho (up, down):  2.099E-04 2.098E-04

     Magnetic moment per site:
     atom:    1    charge:   10.3619    magn:   -0.0003    constr:    0.0000
     atom:    2    charge:   13.8321    magn:   -0.0000    constr:    0.0000

     total cpu time spent up to now is      429.4 secs

     End of self-consistent calculation

     Number of k-points >= 100: set verbosity='high' to print the bands.

     the Fermi energy is    17.6080 ev

!    total energy              =    -473.84694936 Ry
     estimated scf accuracy    <          4.4E-09 Ry
     smearing contrib. (-TS)   =      -0.00257482 Ry
     internal energy E=F+TS    =    -473.84437454 Ry

     The total energy is F=E-TS. E is the sum of the following terms:
     one-electron contribution =    -240.38518790 Ry
     hartree contribution      =     137.42899092 Ry
     xc contribution           =     -55.08386245 Ry
     ewald contribution        =    -315.80431511 Ry

     total magnetization       =    -0.00 Bohr mag/cell
     absolute magnetization    =     0.00 Bohr mag/cell

     convergence has been achieved in  32 iterations

     negative rho (up, down):  2.099E-04 2.098E-04

     Forces acting on atoms (cartesian axes, Ry/au):

     atom    1 type  1   force =    -0.00000001   -0.00000000    0.00000000
     atom    2 type  2   force =     0.00000001    0.00000000   -0.00000000

     Total force =     0.000000     Total SCF correction =     0.000000
     SCF correction compared to forces is large: reduce conv_thr to get better values


     Computing stress (Cartesian axis) and pressure


     negative rho (up, down):  2.099E-04 2.098E-04
          total   stress  (Ry/bohr**3)                   (kbar)     P=       25.91
   0.00017616   0.00000000   0.00000000           25.91        0.00        0.00
   0.00000000   0.00017617   0.00000000            0.00       25.92        0.00
   0.00000000   0.00000000   0.00017613            0.00        0.00       25.91

     Energy error            =      1.2E+00
     Gradient error          =      9.2E-09
     Cell gradient error     =      1.8E-04


     number of scf cycles    =   2
     number of bfgs steps    =   1

     enthalpy old            =    -472.6739758102 Ry
     enthalpy new            =    -473.8469493622 Ry

     CASE: enthalpy_new < enthalpy_old

     new trust radius        =       0.0032244104 bohr
     new conv_thr            =            1.0E-10 Ry

     new unit-cell volume =    164.32528 a.u.^3 (    24.35049 Ang^3 )
     density =      7.56461 g/cm^3

CELL_PARAMETERS (alat=  6.76080431)
  -0.643023051  -0.000000004   0.643022377
   0.000000008   0.643023208   0.643022382
  -0.643023058   0.643023210  -0.000000010

ATOMIC_POSITIONS (alat)
Cr            0.6430230825        0.6430232137        0.6430223809
Co           -0.0000000160       -0.0000000051        0.0000000081



     Writing output data file ./pwscf.save/
     NEW-OLD atomic charge density approx. for the potential

     Check: negative core charge=   -0.000034

     negative rho (up, down):  2.115E-04 2.114E-04
     extrapolated charge   31.10930, renormalised to   31.00000
     Generating pointlists ...

     total cpu time spent up to now is      433.1 secs

     Self-consistent Calculation

     iteration #  1     ecut=    90.00 Ry     beta= 0.20
     Davidson diagonalization with overlap
     ethr =  1.00E-06,  avg # of iterations =  5.2

     negative rho (up, down):  2.080E-04 2.079E-04

     total cpu time spent up to now is      447.1 secs

     total energy              =    -473.79619121 Ry
     estimated scf accuracy    <       0.12378311 Ry

     total magnetization       =    -0.00 Bohr mag/cell
     absolute magnetization    =     0.00 Bohr mag/cell

     iteration #  2     ecut=    90.00 Ry     beta= 0.20
     Davidson diagonalization with overlap
     ethr =  3.99E-04,  avg # of iterations =  2.8

     negative rho (up, down):  2.124E-04 2.123E-04

     total cpu time spent up to now is      455.6 secs

     total energy              =    -473.81663482 Ry
     estimated scf accuracy    <       1.14678712 Ry

     total magnetization       =    -0.00 Bohr mag/cell
     absolute magnetization    =     0.00 Bohr mag/cell

     iteration #  3     ecut=    90.00 Ry     beta= 0.20
     Davidson diagonalization with overlap
     ethr =  3.99E-04,  avg # of iterations =  1.7

     negative rho (up, down):  2.121E-04 2.120E-04

     total cpu time spent up to now is      462.8 secs

     total energy              =    -473.84539993 Ry
     estimated scf accuracy    <       0.08041010 Ry

     total magnetization       =    -0.00 Bohr mag/cell
     absolute magnetization    =     0.00 Bohr mag/cell

     iteration #  4     ecut=    90.00 Ry     beta= 0.20
     Davidson diagonalization with overlap
     ethr =  2.59E-04,  avg # of iterations =  1.0

     negative rho (up, down):  2.117E-04 2.117E-04

     total cpu time spent up to now is      469.4 secs

     total energy              =    -473.84725132 Ry
     estimated scf accuracy    <       0.00931875 Ry

     total magnetization       =    -0.00 Bohr mag/cell
     absolute magnetization    =     0.00 Bohr mag/cell

     iteration #  5     ecut=    90.00 Ry     beta= 0.20
     Davidson diagonalization with overlap
     ethr =  3.01E-05,  avg # of iterations =  1.5

     negative rho (up, down):  2.115E-04 2.114E-04

     total cpu time spent up to now is      476.4 secs

     total energy              =    -473.84732579 Ry
     estimated scf accuracy    <       0.00557127 Ry

     total magnetization       =    -0.00 Bohr mag/cell
     absolute magnetization    =     0.00 Bohr mag/cell

     iteration #  6     ecut=    90.00 Ry     beta= 0.20
     Davidson diagonalization with overlap
     ethr =  1.80E-05,  avg # of iterations =  1.0

     negative rho (up, down):  2.115E-04 2.114E-04

     total cpu time spent up to now is      483.0 secs

     total energy              =    -473.84735155 Ry
     estimated scf accuracy    <       0.00449091 Ry

     total magnetization       =    -0.00 Bohr mag/cell
     absolute magnetization    =     0.00 Bohr mag/cell

     iteration #  7     ecut=    90.00 Ry     beta= 0.20
     Davidson diagonalization with overlap
     ethr =  1.45E-05,  avg # of iterations =  1.0

     negative rho (up, down):  2.115E-04 2.114E-04

     total cpu time spent up to now is      489.6 secs

     total energy              =    -473.84736775 Ry
     estimated scf accuracy    <       0.00454717 Ry

     total magnetization       =    -0.00 Bohr mag/cell
     absolute magnetization    =     0.00 Bohr mag/cell

     iteration #  8     ecut=    90.00 Ry     beta= 0.20
     Davidson diagonalization with overlap
     ethr =  1.45E-05,  avg # of iterations =  1.0

     negative rho (up, down):  2.113E-04 2.112E-04

     total cpu time spent up to now is      496.3 secs

     total energy              =    -473.84725301 Ry
     estimated scf accuracy    <       0.00482848 Ry

     total magnetization       =    -0.00 Bohr mag/cell
     absolute magnetization    =     0.00 Bohr mag/cell

     iteration #  9     ecut=    90.00 Ry     beta= 0.20
     Davidson diagonalization with overlap
     ethr =  1.45E-05,  avg # of iterations =  1.0

     negative rho (up, down):  2.105E-04 2.104E-04

     total cpu time spent up to now is      502.9 secs

     total energy              =    -473.84682172 Ry
     estimated scf accuracy    <       0.00345981 Ry

     total magnetization       =    -0.00 Bohr mag/cell
     absolute magnetization    =     0.00 Bohr mag/cell

     iteration # 10     ecut=    90.00 Ry     beta= 0.20
     Davidson diagonalization with overlap
     ethr =  1.12E-05,  avg # of iterations =  1.0

     negative rho (up, down):  2.105E-04 2.104E-04

     total cpu time spent up to now is      509.5 secs

     total energy              =    -473.84703657 Ry
     estimated scf accuracy    <       0.00003075 Ry

     total magnetization       =    -0.00 Bohr mag/cell
     absolute magnetization    =     0.00 Bohr mag/cell

     iteration # 11     ecut=    90.00 Ry     beta= 0.20
     Davidson diagonalization with overlap
     ethr =  9.92E-08,  avg # of iterations =  3.2

     negative rho (up, down):  2.105E-04 2.104E-04

     total cpu time spent up to now is      518.5 secs

     total energy              =    -473.84704924 Ry
     estimated scf accuracy    <       0.00003477 Ry

     total magnetization       =    -0.00 Bohr mag/cell
     absolute magnetization    =     0.00 Bohr mag/cell

     iteration # 12     ecut=    90.00 Ry     beta= 0.20
     Davidson diagonalization with overlap
     ethr =  9.92E-08,  avg # of iterations =  1.0

     negative rho (up, down):  2.103E-04 2.102E-04

     total cpu time spent up to now is      525.1 secs

     total energy              =    -473.84706044 Ry
     estimated scf accuracy    <       0.00003189 Ry

     total magnetization       =    -0.00 Bohr mag/cell
     absolute magnetization    =     0.00 Bohr mag/cell

     iteration # 13     ecut=    90.00 Ry     beta= 0.20
     Davidson diagonalization with overlap
     ethr =  9.92E-08,  avg # of iterations =  1.9

     negative rho (up, down):  2.105E-04 2.104E-04

     total cpu time spent up to now is      532.5 secs

     total energy              =    -473.84704323 Ry
     estimated scf accuracy    <       0.00008256 Ry

     total magnetization       =    -0.00 Bohr mag/cell
     absolute magnetization    =     0.00 Bohr mag/cell

     iteration # 14     ecut=    90.00 Ry     beta= 0.20
     Davidson diagonalization with overlap
     ethr =  9.92E-08,  avg # of iterations =  2.0

     negative rho (up, down):  2.107E-04 2.106E-04

     total cpu time spent up to now is      540.3 secs

     total energy              =    -473.84703770 Ry
     estimated scf accuracy    <       0.00002035 Ry

     total magnetization       =    -0.00 Bohr mag/cell
     absolute magnetization    =     0.00 Bohr mag/cell

     iteration # 15     ecut=    90.00 Ry     beta= 0.20
     Davidson diagonalization with overlap
     ethr =  6.56E-08,  avg # of iterations =  2.3

     negative rho (up, down):  2.107E-04 2.106E-04

     total cpu time spent up to now is      548.6 secs

     total energy              =    -473.84704178 Ry
     estimated scf accuracy    <       0.00000138 Ry

     total magnetization       =    -0.00 Bohr mag/cell
     absolute magnetization    =     0.00 Bohr mag/cell

     iteration # 16     ecut=    90.00 Ry     beta= 0.20
     Davidson diagonalization with overlap
     ethr =  4.45E-09,  avg # of iterations =  3.1

     negative rho (up, down):  2.107E-04 2.105E-04

     total cpu time spent up to now is      557.4 secs

     total energy              =    -473.84704250 Ry
     estimated scf accuracy    <       0.00000312 Ry

     total magnetization       =    -0.00 Bohr mag/cell
     absolute magnetization    =     0.00 Bohr mag/cell

     iteration # 17     ecut=    90.00 Ry     beta= 0.20
     Davidson diagonalization with overlap
     ethr =  4.45E-09,  avg # of iterations =  2.0

     negative rho (up, down):  2.107E-04 2.106E-04

     total cpu time spent up to now is      565.0 secs

     total energy              =    -473.84704221 Ry
     estimated scf accuracy    <       0.00000651 Ry

     total magnetization       =    -0.00 Bohr mag/cell
     absolute magnetization    =     0.00 Bohr mag/cell

     iteration # 18     ecut=    90.00 Ry     beta= 0.20
     Davidson diagonalization with overlap
     ethr =  4.45E-09,  avg # of iterations =  1.0

     negative rho (up, down):  2.107E-04 2.106E-04

     total cpu time spent up to now is      571.7 secs

     total energy              =    -473.84704209 Ry
     estimated scf accuracy    <       0.00000438 Ry

     total magnetization       =    -0.00 Bohr mag/cell
     absolute magnetization    =     0.00 Bohr mag/cell

     iteration # 19     ecut=    90.00 Ry     beta= 0.20
     Davidson diagonalization with overlap
     ethr =  4.45E-09,  avg # of iterations =  1.0

     negative rho (up, down):  2.107E-04 2.107E-04

     total cpu time spent up to now is      578.4 secs

     total energy              =    -473.84704173 Ry
     estimated scf accuracy    <       0.00000347 Ry

     total magnetization       =    -0.00 Bohr mag/cell
     absolute magnetization    =     0.00 Bohr mag/cell

     iteration # 20     ecut=    90.00 Ry     beta= 0.20
     Davidson diagonalization with overlap
     ethr =  4.45E-09,  avg # of iterations =  1.0

     negative rho (up, down):  2.107E-04 2.107E-04

     total cpu time spent up to now is      585.1 secs

     total energy              =    -473.84704157 Ry
     estimated scf accuracy    <       0.00000201 Ry

     total magnetization       =    -0.00 Bohr mag/cell
     absolute magnetization    =     0.00 Bohr mag/cell

     iteration # 21     ecut=    90.00 Ry     beta= 0.20
     Davidson diagonalization with overlap
     ethr =  4.45E-09,  avg # of iterations =  1.0

     negative rho (up, down):  2.106E-04 2.107E-04

     total cpu time spent up to now is      591.9 secs

     total energy              =    -473.84704152 Ry
     estimated scf accuracy    <       0.00000103 Ry

     total magnetization       =     0.00 Bohr mag/cell
     absolute magnetization    =     0.00 Bohr mag/cell

     iteration # 22     ecut=    90.00 Ry     beta= 0.20
     Davidson diagonalization with overlap
     ethr =  3.33E-09,  avg # of iterations =  1.0

     negative rho (up, down):  2.106E-04 2.106E-04

     total cpu time spent up to now is      598.6 secs

     total energy              =    -473.84704145 Ry
     estimated scf accuracy    <       0.00000073 Ry

     total magnetization       =     0.00 Bohr mag/cell
     absolute magnetization    =     0.00 Bohr mag/cell

     iteration # 23     ecut=    90.00 Ry     beta= 0.20
     Davidson diagonalization with overlap
     ethr =  2.34E-09,  avg # of iterations =  1.0

     negative rho (up, down):  2.106E-04 2.106E-04

     total cpu time spent up to now is      605.3 secs

     total energy              =    -473.84704145 Ry
     estimated scf accuracy    <       0.00000041 Ry

     total magnetization       =     0.00 Bohr mag/cell
     absolute magnetization    =     0.00 Bohr mag/cell

     iteration # 24     ecut=    90.00 Ry     beta= 0.20
     Davidson diagonalization with overlap
     ethr =  1.31E-09,  avg # of iterations =  1.0

     negative rho (up, down):  2.106E-04 2.106E-04

     total cpu time spent up to now is      612.0 secs

     total energy              =    -473.84704137 Ry
     estimated scf accuracy    <       0.00000035 Ry

     total magnetization       =     0.00 Bohr mag/cell
     absolute magnetization    =     0.00 Bohr mag/cell

     iteration # 25     ecut=    90.00 Ry     beta= 0.20
     Davidson diagonalization with overlap
     ethr =  1.14E-09,  avg # of iterations =  1.2

     negative rho (up, down):  2.105E-04 2.106E-04

     total cpu time spent up to now is      618.9 secs

     total energy              =    -473.84704135 Ry
     estimated scf accuracy    <       0.00000009 Ry

     total magnetization       =     0.00 Bohr mag/cell
     absolute magnetization    =     0.00 Bohr mag/cell

     iteration # 26     ecut=    90.00 Ry     beta= 0.20
     Davidson diagonalization with overlap
     ethr =  2.97E-10,  avg # of iterations =  2.3

     negative rho (up, down):  2.105E-04 2.106E-04

     total cpu time spent up to now is      627.3 secs

     total energy              =    -473.84704138 Ry
     estimated scf accuracy    <       0.00000002 Ry

     total magnetization       =     0.00 Bohr mag/cell
     absolute magnetization    =     0.00 Bohr mag/cell

     iteration # 27     ecut=    90.00 Ry     beta= 0.20
     Davidson diagonalization with overlap
     ethr =  7.10E-11,  avg # of iterations =  1.2

     negative rho (up, down):  2.105E-04 2.106E-04

     total cpu time spent up to now is      634.2 secs

     total energy              =    -473.84704138 Ry
     estimated scf accuracy    <          7.0E-09 Ry

     total magnetization       =     0.00 Bohr mag/cell
     absolute magnetization    =     0.00 Bohr mag/cell

     iteration # 28     ecut=    90.00 Ry     beta= 0.20
     Davidson diagonalization with overlap
     ethr =  2.25E-11,  avg # of iterations =  1.0

     negative rho (up, down):  2.106E-04 2.106E-04

     total cpu time spent up to now is      640.9 secs

     total energy              =    -473.84704138 Ry
     estimated scf accuracy    <          4.8E-09 Ry

     total magnetization       =     0.00 Bohr mag/cell
     absolute magnetization    =     0.00 Bohr mag/cell

     iteration # 29     ecut=    90.00 Ry     beta= 0.20
     Davidson diagonalization with overlap
     ethr =  1.54E-11,  avg # of iterations =  2.9

     negative rho (up, down):  2.106E-04 2.106E-04

     total cpu time spent up to now is      650.5 secs

     total energy              =    -473.84704138 Ry
     estimated scf accuracy    <          2.1E-09 Ry

     total magnetization       =     0.00 Bohr mag/cell
     absolute magnetization    =     0.00 Bohr mag/cell

     iteration # 30     ecut=    90.00 Ry     beta= 0.20
     Davidson diagonalization with overlap
     ethr =  6.85E-12,  avg # of iterations =  2.6

     negative rho (up, down):  2.106E-04 2.106E-04

     total cpu time spent up to now is      659.5 secs

     total energy              =    -473.84704138 Ry
     estimated scf accuracy    <          8.0E-10 Ry

     total magnetization       =     0.00 Bohr mag/cell
     absolute magnetization    =     0.00 Bohr mag/cell

     iteration # 31     ecut=    90.00 Ry     beta= 0.20
     Davidson diagonalization with overlap
     ethr =  2.57E-12,  avg # of iterations =  1.6

     negative rho (up, down):  2.106E-04 2.106E-04

     total cpu time spent up to now is      666.7 secs

     total energy              =    -473.84704138 Ry
     estimated scf accuracy    <          3.9E-10 Ry

     total magnetization       =     0.00 Bohr mag/cell
     absolute magnetization    =     0.00 Bohr mag/cell

     iteration # 32     ecut=    90.00 Ry     beta= 0.20
     Davidson diagonalization with overlap
     ethr =  1.25E-12,  avg # of iterations =  1.9

     negative rho (up, down):  2.106E-04 2.106E-04

     total cpu time spent up to now is      674.3 secs

     total energy              =    -473.84704138 Ry
     estimated scf accuracy    <          2.1E-10 Ry

     total magnetization       =     0.00 Bohr mag/cell
     absolute magnetization    =     0.00 Bohr mag/cell

     iteration # 33     ecut=    90.00 Ry     beta= 0.20
     Davidson diagonalization with overlap
     ethr =  6.69E-13,  avg # of iterations =  1.0

     negative rho (up, down):  2.106E-04 2.106E-04

     total cpu time spent up to now is      681.0 secs

     total energy              =    -473.84704138 Ry
     estimated scf accuracy    <          1.7E-10 Ry

     total magnetization       =     0.00 Bohr mag/cell
     absolute magnetization    =     0.00 Bohr mag/cell

     iteration # 34     ecut=    90.00 Ry     beta= 0.20
     Davidson diagonalization with overlap
     ethr =  5.37E-13,  avg # of iterations =  1.0

     negative rho (up, down):  2.106E-04 2.106E-04

     total cpu time spent up to now is      687.7 secs

     total energy              =    -473.84704138 Ry
     estimated scf accuracy    <          2.5E-10 Ry

     total magnetization       =     0.00 Bohr mag/cell
     absolute magnetization    =     0.00 Bohr mag/cell

     iteration # 35     ecut=    90.00 Ry     beta= 0.20
     Davidson diagonalization with overlap
     ethr =  5.37E-13,  avg # of iterations =  1.0

     negative rho (up, down):  2.106E-04 2.106E-04

     total cpu time spent up to now is      694.4 secs

     total energy              =    -473.84704138 Ry
     estimated scf accuracy    <          1.8E-10 Ry

     total magnetization       =     0.00 Bohr mag/cell
     absolute magnetization    =     0.00 Bohr mag/cell

     iteration # 36     ecut=    90.00 Ry     beta= 0.20
     Davidson diagonalization with overlap
     ethr =  5.37E-13,  avg # of iterations =  1.2

     negative rho (up, down):  2.106E-04 2.106E-04

     total cpu time spent up to now is      701.3 secs

     total energy              =    -473.84704138 Ry
     estimated scf accuracy    <          1.4E-10 Ry

     total magnetization       =     0.00 Bohr mag/cell
     absolute magnetization    =     0.00 Bohr mag/cell

     iteration # 37     ecut=    90.00 Ry     beta= 0.20
     Davidson diagonalization with overlap
     ethr =  4.41E-13,  avg # of iterations =  2.0

     negative rho (up, down):  2.106E-04 2.106E-04

     total cpu time spent up to now is      709.1 secs

     total energy              =    -473.84704138 Ry
     estimated scf accuracy    <          2.6E-10 Ry

     total magnetization       =     0.00 Bohr mag/cell
     absolute magnetization    =     0.00 Bohr mag/cell

     iteration # 38     ecut=    90.00 Ry     beta= 0.20
     Davidson diagonalization with overlap
     ethr =  4.41E-13,  avg # of iterations =  2.5

     negative rho (up, down):  2.106E-04 2.106E-04

     Magnetic moment per site:
     atom:    1    charge:   10.3606    magn:    0.0001    constr:    0.0000
     atom:    2    charge:   13.8309    magn:   -0.0000    constr:    0.0000

     total cpu time spent up to now is      717.5 secs

     End of self-consistent calculation

     Number of k-points >= 100: set verbosity='high' to print the bands.

     the Fermi energy is    17.5259 ev

!    total energy              =    -473.84704138 Ry
     estimated scf accuracy    <          4.6E-11 Ry
     smearing contrib. (-TS)   =      -0.00258860 Ry
     internal energy E=F+TS    =    -473.84445278 Ry

     The total energy is F=E-TS. E is the sum of the following terms:
     one-electron contribution =    -241.01502816 Ry
     hartree contribution      =     137.65509435 Ry
     xc contribution           =     -55.07745881 Ry
     ewald contribution        =    -315.40706017 Ry

     total magnetization       =     0.00 Bohr mag/cell
     absolute magnetization    =     0.00 Bohr mag/cell

     convergence has been achieved in  38 iterations

     negative rho (up, down):  2.106E-04 2.106E-04

     Forces acting on atoms (cartesian axes, Ry/au):

     atom    1 type  1   force =     0.00000009    0.00000006   -0.00000007
     atom    2 type  2   force =    -0.00000009   -0.00000006    0.00000007

     Total force =     0.000000     Total SCF correction =     0.000001
     SCF correction compared to forces is large: reduce conv_thr to get better values


     Computing stress (Cartesian axis) and pressure


     negative rho (up, down):  2.106E-04 2.106E-04
          total   stress  (Ry/bohr**3)                   (kbar)     P=       17.78
   0.00012084   0.00000000   0.00000000           17.78        0.00        0.00
   0.00000000   0.00012083   0.00000000            0.00       17.78        0.00
   0.00000000   0.00000000   0.00012085            0.00        0.00       17.78

     Energy error            =      9.2E-05
     Gradient error          =      9.4E-08
     Cell gradient error     =      1.2E-04


     number of scf cycles    =   3
     number of bfgs steps    =   2

     enthalpy old            =    -473.8469493622 Ry
     enthalpy new            =    -473.8470413757 Ry

     CASE: enthalpy_new < enthalpy_old

     new trust radius        =       0.0035490824 bohr
     new conv_thr            =            1.0E-10 Ry

     new unit-cell volume =    165.00842 a.u.^3 (    24.45172 Ang^3 )
     density =      7.53330 g/cm^3

CELL_PARAMETERS (alat=  6.76080431)
  -0.643912633   0.000000133   0.643912357
   0.000000199   0.643912975   0.643912688
  -0.643912777   0.643912787  -0.000000011

ATOMIC_POSITIONS (alat)
Cr            0.6439130563        0.6439130318        0.6439128252
Co           -0.0000000525       -0.0000000287        0.0000000345



     Writing output data file ./pwscf.save/
     NEW-OLD atomic charge density approx. for the potential

     Check: negative core charge=   -0.000034

     negative rho (up, down):  2.123E-04 2.124E-04
     extrapolated charge   31.12006, renormalised to   31.00000
     Generating pointlists ...

     total cpu time spent up to now is      721.3 secs

     Self-consistent Calculation

     iteration #  1     ecut=    90.00 Ry     beta= 0.20
     Davidson diagonalization with overlap
     ethr =  1.00E-06,  avg # of iterations =  5.1

     negative rho (up, down):  2.084E-04 2.084E-04

     total cpu time spent up to now is      735.4 secs

     total energy              =    -473.78445946 Ry
     estimated scf accuracy    <       0.15288127 Ry

     total magnetization       =     0.00 Bohr mag/cell
     absolute magnetization    =     0.00 Bohr mag/cell

     iteration #  2     ecut=    90.00 Ry     beta= 0.20
     Davidson diagonalization with overlap
     ethr =  4.93E-04,  avg # of iterations =  2.8

     negative rho (up, down):  2.132E-04 2.133E-04

     total cpu time spent up to now is      744.0 secs

     total energy              =    -473.81135230 Ry
     estimated scf accuracy    <       1.36801635 Ry

     total magnetization       =     0.00 Bohr mag/cell
     absolute magnetization    =     0.00 Bohr mag/cell

     iteration #  3     ecut=    90.00 Ry     beta= 0.20
     Davidson diagonalization with overlap
     ethr =  4.93E-04,  avg # of iterations =  1.7

     negative rho (up, down):  2.130E-04 2.130E-04

     total cpu time spent up to now is      751.2 secs

     total energy              =    -473.84488606 Ry
     estimated scf accuracy    <       0.10230121 Ry

     total magnetization       =     0.00 Bohr mag/cell
     absolute magnetization    =     0.00 Bohr mag/cell

     iteration #  4     ecut=    90.00 Ry     beta= 0.20
     Davidson diagonalization with overlap
     ethr =  3.30E-04,  avg # of iterations =  1.0

     negative rho (up, down):  2.126E-04 2.126E-04

     total cpu time spent up to now is      757.9 secs

     total energy              =    -473.84737016 Ry
     estimated scf accuracy    <       0.01082589 Ry

     total magnetization       =     0.00 Bohr mag/cell
     absolute magnetization    =     0.00 Bohr mag/cell

     iteration #  5     ecut=    90.00 Ry     beta= 0.20
     Davidson diagonalization with overlap
     ethr =  3.49E-05,  avg # of iterations =  1.5

     negative rho (up, down):  2.123E-04 2.123E-04

     total cpu time spent up to now is      764.9 secs

     total energy              =    -473.84745641 Ry
     estimated scf accuracy    <       0.00699135 Ry

     total magnetization       =     0.00 Bohr mag/cell
     absolute magnetization    =     0.00 Bohr mag/cell

     iteration #  6     ecut=    90.00 Ry     beta= 0.20
     Davidson diagonalization with overlap
     ethr =  2.26E-05,  avg # of iterations =  1.0

     negative rho (up, down):  2.123E-04 2.123E-04

     total cpu time spent up to now is      771.6 secs

     total energy              =    -473.84746727 Ry
     estimated scf accuracy    <       0.00565143 Ry

     total magnetization       =     0.00 Bohr mag/cell
     absolute magnetization    =     0.00 Bohr mag/cell

     iteration #  7     ecut=    90.00 Ry     beta= 0.20
     Davidson diagonalization with overlap
     ethr =  1.82E-05,  avg # of iterations =  1.0

     negative rho (up, down):  2.123E-04 2.124E-04

     total cpu time spent up to now is      778.2 secs

     total energy              =    -473.84753559 Ry
     estimated scf accuracy    <       0.00545707 Ry

     total magnetization       =     0.00 Bohr mag/cell
     absolute magnetization    =     0.00 Bohr mag/cell

     iteration #  8     ecut=    90.00 Ry     beta= 0.20
     Davidson diagonalization with overlap
     ethr =  1.76E-05,  avg # of iterations =  1.0

     negative rho (up, down):  2.120E-04 2.120E-04

     total cpu time spent up to now is      784.9 secs

     total energy              =    -473.84728775 Ry
     estimated scf accuracy    <       0.00651099 Ry

     total magnetization       =     0.00 Bohr mag/cell
     absolute magnetization    =     0.00 Bohr mag/cell

     iteration #  9     ecut=    90.00 Ry     beta= 0.20
     Davidson diagonalization with overlap
     ethr =  1.76E-05,  avg # of iterations =  1.0

     negative rho (up, down):  2.112E-04 2.112E-04

     total cpu time spent up to now is      791.6 secs

     total energy              =    -473.84683521 Ry
     estimated scf accuracy    <       0.00349386 Ry

     total magnetization       =     0.00 Bohr mag/cell
     absolute magnetization    =     0.00 Bohr mag/cell

     iteration # 10     ecut=    90.00 Ry     beta= 0.20
     Davidson diagonalization with overlap
[...]
     c_bands:  1 eigenvalues not converged
     ethr =  1.00E-06,  avg # of iterations = 10.8

     negative rho (up, down):  3.677E-04 3.677E-04

     total cpu time spent up to now is     1394.4 secs

     total energy              =    -468.32760786 Ry
     estimated scf accuracy    <      27.65281753 Ry

     total magnetization       =     0.00 Bohr mag/cell
     absolute magnetization    =     0.00 Bohr mag/cell

     iteration #  2     ecut=    90.00 Ry     beta= 0.20
     Davidson diagonalization with overlap
     ethr =  1.00E-02,  avg # of iterations =  3.7

     negative rho (up, down):  5.369E-04 5.369E-04

     total cpu time spent up to now is     1412.7 secs

     total energy              =    -473.75355015 Ry
     estimated scf accuracy    <      15.07512453 Ry

     total magnetization       =    -0.00 Bohr mag/cell
     absolute magnetization    =     0.00 Bohr mag/cell

     iteration #  3     ecut=    90.00 Ry     beta= 0.20
     Davidson diagonalization with overlap
     ethr =  1.00E-02,  avg # of iterations =  2.2

     negative rho (up, down):  1.356E-03 1.356E-03

     total cpu time spent up to now is     1426.3 secs

     total energy              =    -471.51309904 Ry
     estimated scf accuracy    <       4.30872264 Ry

     total magnetization       =     0.00 Bohr mag/cell
     absolute magnetization    =     0.00 Bohr mag/cell

     iteration #  4     ecut=    90.00 Ry     beta= 0.20
     Davidson diagonalization with overlap
     ethr =  1.00E-02,  avg # of iterations =  3.6

     negative rho (up, down):  5.354E-04 5.354E-04

     total cpu time spent up to now is     1444.6 secs

     total energy              =    -470.59778912 Ry
     estimated scf accuracy    <      52.89837485 Ry

     total magnetization       =     0.00 Bohr mag/cell
     absolute magnetization    =     0.00 Bohr mag/cell

     iteration #  5     ecut=    90.00 Ry     beta= 0.20
     Davidson diagonalization with overlap
     ethr =  1.00E-02,  avg # of iterations =  3.4

     negative rho (up, down):  5.094E-04 5.094E-04

     total cpu time spent up to now is     1461.2 secs

     total energy              =    -473.88321846 Ry
     estimated scf accuracy    <       0.96112736 Ry

     total magnetization       =     0.00 Bohr mag/cell
     absolute magnetization    =     0.00 Bohr mag/cell

     iteration #  6     ecut=    90.00 Ry     beta= 0.20
     Davidson diagonalization with overlap
     ethr =  3.10E-03,  avg # of iterations =  1.0

     negative rho (up, down):  5.339E-04 5.339E-04

     total cpu time spent up to now is     1472.8 secs

     total energy              =    -473.65728950 Ry
     estimated scf accuracy    <       0.69408945 Ry

     total magnetization       =     0.00 Bohr mag/cell
     absolute magnetization    =     0.00 Bohr mag/cell

     iteration #  7     ecut=    90.00 Ry     beta= 0.20
     Davidson diagonalization with overlap
     ethr =  2.24E-03,  avg # of iterations =  2.3

     negative rho (up, down):  5.281E-04 5.281E-04

     total cpu time spent up to now is     1486.4 secs

     total energy              =    -474.08964438 Ry
     estimated scf accuracy    <       9.29449909 Ry

     total magnetization       =     0.00 Bohr mag/cell
     absolute magnetization    =     0.00 Bohr mag/cell

     iteration #  8     ecut=    90.00 Ry     beta= 0.20
     Davidson diagonalization with overlap
     ethr =  2.24E-03,  avg # of iterations =  1.0

     negative rho (up, down):  4.969E-04 4.969E-04

     total cpu time spent up to now is     1497.9 secs

     total energy              =    -473.79180673 Ry
     estimated scf accuracy    <       7.53810273 Ry

     total magnetization       =     0.00 Bohr mag/cell
     absolute magnetization    =     0.00 Bohr mag/cell

     iteration #  9     ecut=    90.00 Ry     beta= 0.20
     Davidson diagonalization with overlap
     ethr =  2.24E-03,  avg # of iterations =  1.0

     negative rho (up, down):  4.913E-04 4.913E-04

     total cpu time spent up to now is     1509.5 secs

     total energy              =    -473.88017084 Ry
     estimated scf accuracy    <       1.04699314 Ry

     total magnetization       =     0.00 Bohr mag/cell
     absolute magnetization    =     0.00 Bohr mag/cell

     iteration # 10     ecut=    90.00 Ry     beta= 0.20
     Davidson diagonalization with overlap
     ethr =  2.24E-03,  avg # of iterations =  1.0

     negative rho (up, down):  4.771E-04 4.771E-04

     total cpu time spent up to now is     1521.0 secs

     total energy              =    -473.83331036 Ry
     estimated scf accuracy    <       0.97185478 Ry

     total magnetization       =     0.00 Bohr mag/cell
     absolute magnetization    =     0.00 Bohr mag/cell

     iteration # 11     ecut=    90.00 Ry     beta= 0.20
     Davidson diagonalization with overlap
     ethr =  2.24E-03,  avg # of iterations =  1.0

     negative rho (up, down):  4.724E-04 4.724E-04

     total cpu time spent up to now is     1532.5 secs

     total energy              =    -473.84903389 Ry
     estimated scf accuracy    <       0.08555372 Ry

     total magnetization       =     0.00 Bohr mag/cell
     absolute magnetization    =     0.00 Bohr mag/cell

     iteration # 12     ecut=    90.00 Ry     beta= 0.20
     Davidson diagonalization with overlap
     ethr =  2.76E-04,  avg # of iterations =  1.0

     negative rho (up, down):  4.535E-04 4.535E-04

     total cpu time spent up to now is     1544.1 secs

     total energy              =    -473.84833705 Ry
     estimated scf accuracy    <       0.04080542 Ry

     total magnetization       =     0.00 Bohr mag/cell
     absolute magnetization    =     0.00 Bohr mag/cell

     iteration # 13     ecut=    90.00 Ry     beta= 0.20
     Davidson diagonalization with overlap
     ethr =  1.32E-04,  avg # of iterations =  1.0

     negative rho (up, down):  4.503E-04 4.503E-04

     total cpu time spent up to now is     1555.7 secs

     total energy              =    -473.84613267 Ry
     estimated scf accuracy    <       0.01331375 Ry

     total magnetization       =     0.00 Bohr mag/cell
     absolute magnetization    =     0.00 Bohr mag/cell

     iteration # 14     ecut=    90.00 Ry     beta= 0.20
     Davidson diagonalization with overlap
     ethr =  4.29E-05,  avg # of iterations =  2.0

     negative rho (up, down):  4.473E-04 4.473E-04

     total cpu time spent up to now is     1568.5 secs

     total energy              =    -473.84973565 Ry
     estimated scf accuracy    <       0.02579852 Ry

     total magnetization       =     0.00 Bohr mag/cell
     absolute magnetization    =     0.00 Bohr mag/cell

     iteration # 15     ecut=    90.00 Ry     beta= 0.20
     Davidson diagonalization with overlap
     ethr =  4.29E-05,  avg # of iterations =  1.0

     negative rho (up, down):  4.545E-04 4.545E-04

     total cpu time spent up to now is     1580.0 secs

     total energy              =    -473.84873111 Ry
     estimated scf accuracy    <       0.02675350 Ry

     total magnetization       =     0.00 Bohr mag/cell
     absolute magnetization    =     0.00 Bohr mag/cell

     iteration # 16     ecut=    90.00 Ry     beta= 0.20
     Davidson diagonalization with overlap
     ethr =  4.29E-05,  avg # of iterations =  1.0

     negative rho (up, down):  4.580E-04 4.580E-04

     total cpu time spent up to now is     1591.5 secs

     total energy              =    -473.84834974 Ry
     estimated scf accuracy    <       0.01227516 Ry

     total magnetization       =     0.00 Bohr mag/cell
     absolute magnetization    =     0.00 Bohr mag/cell

     iteration # 17     ecut=    90.00 Ry     beta= 0.20
     Davidson diagonalization with overlap
     ethr =  3.96E-05,  avg # of iterations =  1.0

     negative rho (up, down):  4.596E-04 4.596E-04

     total cpu time spent up to now is     1603.1 secs

     total energy              =    -473.84812013 Ry
     estimated scf accuracy    <       0.00382333 Ry

     total magnetization       =     0.00 Bohr mag/cell
     absolute magnetization    =     0.00 Bohr mag/cell

     iteration # 18     ecut=    90.00 Ry     beta= 0.20
     Davidson diagonalization with overlap
     ethr =  1.23E-05,  avg # of iterations =  1.0

     negative rho (up, down):  4.780E-04 4.780E-04

     total cpu time spent up to now is     1614.6 secs

     total energy              =    -473.84830114 Ry
     estimated scf accuracy    <       0.00001530 Ry

     total magnetization       =     0.00 Bohr mag/cell
     absolute magnetization    =     0.00 Bohr mag/cell

     iteration # 19     ecut=    90.00 Ry     beta= 0.20
     Davidson diagonalization with overlap
     ethr =  4.94E-08,  avg # of iterations =  4.9

     negative rho (up, down):  4.678E-04 4.679E-04

     total cpu time spent up to now is     1635.4 secs

     total energy              =    -473.84797327 Ry
     estimated scf accuracy    <       0.00615639 Ry

     total magnetization       =     0.00 Bohr mag/cell
     absolute magnetization    =     0.00 Bohr mag/cell

     iteration # 20     ecut=    90.00 Ry     beta= 0.20
     Davidson diagonalization with overlap
     ethr =  4.94E-08,  avg # of iterations =  4.7

     negative rho (up, down):  4.701E-04 4.701E-04

     total cpu time spent up to now is     1655.5 secs

     total energy              =    -473.84829183 Ry
     estimated scf accuracy    <       0.00000161 Ry

     total magnetization       =     0.00 Bohr mag/cell
     absolute magnetization    =     0.00 Bohr mag/cell

     iteration # 21     ecut=    90.00 Ry     beta= 0.20
     Davidson diagonalization with overlap
     ethr =  5.18E-09,  avg # of iterations =  3.8

     negative rho (up, down):  4.688E-04 4.689E-04

     total cpu time spent up to now is     1672.8 secs

     total energy              =    -473.84828895 Ry
     estimated scf accuracy    <       0.00006530 Ry

     total magnetization       =     0.00 Bohr mag/cell
     absolute magnetization    =     0.00 Bohr mag/cell

     iteration # 22     ecut=    90.00 Ry     beta= 0.20
     Davidson diagonalization with overlap
     ethr =  5.18E-09,  avg # of iterations =  3.6

     negative rho (up, down):  4.685E-04 4.686E-04

     total cpu time spent up to now is     1689.9 secs

     total energy              =    -473.84829102 Ry
     estimated scf accuracy    <       0.00000334 Ry

     total magnetization       =     0.00 Bohr mag/cell
     absolute magnetization    =     0.00 Bohr mag/cell

     iteration # 23     ecut=    90.00 Ry     beta= 0.20
     Davidson diagonalization with overlap
     ethr =  5.18E-09,  avg # of iterations =  1.0

     negative rho (up, down):  4.687E-04 4.687E-04

     total cpu time spent up to now is     1701.4 secs

     total energy              =    -473.84829116 Ry
     estimated scf accuracy    <       0.00000086 Ry

     total magnetization       =     0.00 Bohr mag/cell
     absolute magnetization    =     0.00 Bohr mag/cell

     iteration # 24     ecut=    90.00 Ry     beta= 0.20
     Davidson diagonalization with overlap
     ethr =  2.79E-09,  avg # of iterations =  1.0

     negative rho (up, down):  4.686E-04 4.687E-04

     total cpu time spent up to now is     1713.0 secs

     total energy              =    -473.84829094 Ry
     estimated scf accuracy    <       0.00000167 Ry

     total magnetization       =     0.00 Bohr mag/cell
     absolute magnetization    =     0.00 Bohr mag/cell

     iteration # 25     ecut=    90.00 Ry     beta= 0.20
     Davidson diagonalization with overlap
     ethr =  2.79E-09,  avg # of iterations =  2.0

     negative rho (up, down):  4.684E-04 4.685E-04

     total cpu time spent up to now is     1726.5 secs

     total energy              =    -473.84829104 Ry
     estimated scf accuracy    <       0.00000026 Ry

     total magnetization       =     0.00 Bohr mag/cell
     absolute magnetization    =     0.00 Bohr mag/cell

     iteration # 26     ecut=    90.00 Ry     beta= 0.20
     Davidson diagonalization with overlap
     ethr =  8.52E-10,  avg # of iterations =  1.0

     negative rho (up, down):  4.684E-04 4.684E-04

     total cpu time spent up to now is     1738.0 secs

     total energy              =    -473.84829104 Ry
     estimated scf accuracy    <       0.00000006 Ry

     total magnetization       =     0.00 Bohr mag/cell
     absolute magnetization    =     0.00 Bohr mag/cell

     iteration # 27     ecut=    90.00 Ry     beta= 0.20
     Davidson diagonalization with overlap
     ethr =  1.93E-10,  avg # of iterations =  1.5

     negative rho (up, down):  4.684E-04 4.684E-04

     total cpu time spent up to now is     1750.3 secs

     total energy              =    -473.84829105 Ry
     estimated scf accuracy    <          2.4E-09 Ry

     total magnetization       =     0.00 Bohr mag/cell
     absolute magnetization    =     0.00 Bohr mag/cell

     iteration # 28     ecut=    90.00 Ry     beta= 0.20
     Davidson diagonalization with overlap
     ethr =  7.66E-12,  avg # of iterations =  2.1

     negative rho (up, down):  4.684E-04 4.685E-04

     total cpu time spent up to now is     1763.8 secs

     total energy              =    -473.84829104 Ry
     estimated scf accuracy    <          7.5E-09 Ry

     total magnetization       =     0.00 Bohr mag/cell
     absolute magnetization    =     0.00 Bohr mag/cell

     iteration # 29     ecut=    90.00 Ry     beta= 0.20
     Davidson diagonalization with overlap
     ethr =  7.66E-12,  avg # of iterations =  2.3

     negative rho (up, down):  4.684E-04 4.685E-04

     total cpu time spent up to now is     1778.1 secs

     total energy              =    -473.84829105 Ry
     estimated scf accuracy    <          6.2E-10 Ry

     total magnetization       =     0.00 Bohr mag/cell
     absolute magnetization    =     0.00 Bohr mag/cell

     iteration # 30     ecut=    90.00 Ry     beta= 0.20
     Davidson diagonalization with overlap
     ethr =  2.00E-12,  avg # of iterations =  3.3

     negative rho (up, down):  4.684E-04 4.685E-04

     total cpu time spent up to now is     1793.3 secs

     total energy              =    -473.84829105 Ry
     estimated scf accuracy    <          3.3E-10 Ry

     total magnetization       =     0.00 Bohr mag/cell
     absolute magnetization    =     0.00 Bohr mag/cell

     iteration # 31     ecut=    90.00 Ry     beta= 0.20
     Davidson diagonalization with overlap
     ethr =  1.05E-12,  avg # of iterations =  1.6

     negative rho (up, down):  4.684E-04 4.685E-04

     Magnetic moment per site:
     atom:    1    charge:   10.3591    magn:    0.0001    constr:    0.0000
     atom:    2    charge:   13.8296    magn:    0.0000    constr:    0.0000

     total cpu time spent up to now is     1805.7 secs

     End of self-consistent calculation

     Number of k-points >= 100: set verbosity='high' to print the bands.

     the Fermi energy is    17.3364 ev

!    total energy              =    -473.84829105 Ry
     estimated scf accuracy    <          5.1E-11 Ry
     smearing contrib. (-TS)   =      -0.00262043 Ry
     internal energy E=F+TS    =    -473.84567062 Ry

     The total energy is F=E-TS. E is the sum of the following terms:
     one-electron contribution =    -242.47159159 Ry
     hartree contribution      =     138.17889635 Ry
     xc contribution           =     -55.06256167 Ry
     ewald contribution        =    -314.49041371 Ry

     total magnetization       =     0.00 Bohr mag/cell
     absolute magnetization    =     0.00 Bohr mag/cell

     convergence has been achieved in  31 iterations

     negative rho (up, down):  4.684E-04 4.685E-04

     Forces acting on atoms (cartesian axes, Ry/au):

     atom    1 type  1   force =    -0.00000001   -0.00000001    0.00000001
     atom    2 type  2   force =     0.00000001    0.00000001   -0.00000001

     Total force =     0.000000     Total SCF correction =     0.000000


     Computing stress (Cartesian axis) and pressure


     negative rho (up, down):  4.684E-04 4.685E-04
          total   stress  (Ry/bohr**3)                   (kbar)     P=        1.00
   0.00000677  -0.00000001   0.00000000            1.00       -0.00        0.00
  -0.00000001   0.00000677  -0.00000000           -0.00        1.00       -0.00
   0.00000000  -0.00000000   0.00000677            0.00       -0.00        1.00


     init_run     :      9.14s CPU     11.73s WALL (       2 calls)
     electrons    :   1701.86s CPU   1769.78s WALL (       7 calls)
     update_pot   :      1.82s CPU      1.86s WALL (       5 calls)
     forces       :      7.49s CPU      7.71s WALL (       7 calls)
     stress       :     16.05s CPU     16.19s WALL (       7 calls)

     Called by init_run:
     wfcinit      :      7.50s CPU      8.52s WALL (       2 calls)
     potinit      :      0.39s CPU      0.55s WALL (       2 calls)
     hinit0       :      0.95s CPU      2.10s WALL (       2 calls)

     Called by electrons:
     c_bands      :   1429.65s CPU   1485.83s WALL (     198 calls)
     sum_band     :    247.54s CPU    258.31s WALL (     198 calls)
     v_of_rho     :      7.07s CPU      7.62s WALL (     205 calls)
     newd         :     17.07s CPU     17.38s WALL (     205 calls)
     mix_rho      :      0.59s CPU      0.75s WALL (     198 calls)

     Called by c_bands:
     init_us_2    :     19.72s CPU     20.67s WALL (  415296 calls)
     cegterg      :   1372.77s CPU   1427.55s WALL (  199584 calls)

     Called by *egterg:
     cdiaghg      :    205.01s CPU    212.20s WALL (  578198 calls)
     h_psi        :    905.27s CPU    943.74s WALL (  585254 calls)
     s_psi        :     45.58s CPU     47.79s WALL (  585254 calls)
     g_psi        :      3.14s CPU      3.23s WALL (  383654 calls)

     Called by h_psi:
     h_psi:calbec :     62.45s CPU     65.82s WALL (  585254 calls)
     vloc_psi     :    795.22s CPU    828.08s WALL (  585254 calls)
     add_vuspsi   :     44.31s CPU     46.67s WALL (  585254 calls)

     General routines
     calbec       :     90.73s CPU     95.57s WALL (  820118 calls)
     fft          :      3.33s CPU      4.33s WALL (    5396 calls)
     ffts         :      0.08s CPU      0.15s WALL (     806 calls)
     fftw         :    890.39s CPU    928.50s WALL (22715090 calls)
     interpolate  :      0.30s CPU      0.42s WALL (     410 calls)

     Parallel routines
     fft_scatt_xy :    108.85s CPU    113.01s WALL (22721292 calls)
     fft_scatt_yz :    322.73s CPU    337.55s WALL (22721292 calls)

     PWSCF        :  28m57.75s CPU  30m11.78s WALL


   This run was terminated on:  19:19:59   8Dec2021            

=------------------------------------------------------------------------------=
   JOB DONE.
=------------------------------------------------------------------------------=
Note: The following floating-point exceptions are signalling: IEEE_UNDERFLOW_FLAG IEEE_DENORMAL
Note: The following floating-point exceptions are signalling: IEEE_UNDERFLOW_FLAG IEEE_DENORMAL
Note: The following floating-point exceptions are signalling: IEEE_UNDERFLOW_FLAG IEEE_DENORMAL
Note: The following floating-point exceptions are signalling: IEEE_UNDERFLOW_FLAG IEEE_DENORMAL
Note: The following floating-point exceptions are signalling: IEEE_UNDERFLOW_FLAG IEEE_DENORMAL
Note: The following floating-point exceptions are signalling: IEEE_UNDERFLOW_FLAG IEEE_DENORMAL
Note: The following floating-point exceptions are signalling: IEEE_UNDERFLOW_FLAG IEEE_DENORMAL
Note: The following floating-point exceptions are signalling: IEEE_UNDERFLOW_FLAG IEEE_DENORMAL
Note: The following floating-point exceptions are signalling: IEEE_UNDERFLOW_FLAG IEEE_DENORMAL
Note: The following floating-point exceptions are signalling: IEEE_UNDERFLOW_FLAG IEEE_DENORMAL
Note: The following floating-point exceptions are signalling: IEEE_UNDERFLOW_FLAG IEEE_DENORMAL
Note: The following floating-point exceptions are signalling: IEEE_UNDERFLOW_FLAG IEEE_DENORMAL
