 # File generated with Atomsk by kevin on 2022-03-22 14:12:20
 
           8  atoms
           2  atom types
 
      0.000000000000       4.614400000000  xlo xhi
      0.000000000000       4.614400000000  ylo yhi
      0.000000000000       4.614400000000  zlo zhi
 
Masses
 
            1   58.93319500             # Co
            2   51.99610000             # Cr
 
Atoms # atomic
 
         1    1        0.963109687801      -0.537384341569      -0.070574527775
         2    2        1.442307009850       1.924171761569       2.092446340921
         3    1        0.963109687801       1.769815658431       2.236625472225
         4    2        1.442307009850      -0.383028238431      -0.214753659079
         5    1        3.270309687801       1.769815658431      -0.070574527775
         6    2        0.963109687801      -0.537384341569       2.236625472225
         7    1        3.270309687801      -0.537384341569       2.236625472225
         8    2        0.963109687801       1.769815658431      -0.070574527775
