 # Cr4 Fe4
 
           8  atoms
           2  atom types
 
      0.000000000000       4.778280000000  xlo xhi
      0.000000000000       4.778280000000  ylo yhi
      0.000000000000       4.778280000000  zlo zhi
 
Masses
 
            1   51.99610000             # Cr
            2   55.84500000             # Fe
 
Atoms # atomic
 
         1    1        0.000000000000       0.000000000000       0.000000000000
         2    2        2.389140000000       2.389140000000       2.389140000000
         3    1        0.000000000000       2.389140000000       2.389140000000
         4    2        2.389140000000       0.000000000000       0.000000000000
         5    1        2.389140000000       2.389140000000       0.000000000000
         6    2        0.000000000000       0.000000000000       2.389140000000
         7    1        2.389140000000       0.000000000000       2.389140000000
         8    2        0.000000000000       2.389140000000       0.000000000000
