 # Cr4 Fe4
 
           8  atoms
           2  atom types
 
      0.000000000000       4.824225000000  xlo xhi
      0.000000000000       4.824225000000  ylo yhi
      0.000000000000       4.824225000000  zlo zhi
 
Masses
 
            1   51.99610000             # Cr
            2   55.84500000             # Fe
 
Atoms # atomic
 
         1    1        0.000000000000       0.000000000000       0.000000000000
         2    2        2.412112500000       2.412112500000       2.412112500000
         3    1        4.824225000000       2.412112500000       2.412112500000
         4    2        2.412112500000       0.000000000000       0.000000000000
         5    1        2.412112500000       2.412112500000       0.000000000000
         6    2        4.824225000000       4.824225000000       2.412112500000
         7    1        2.412112500000       4.824225000000       2.412112500000
         8    2        4.824225000000       2.412112500000       0.000000000000
