LAMMPS data file via write_data, version 10 Mar 2021, timestep = 0
1 atoms
1 atom types
1 atoms
1 atom types
0.0 2.30108370927847 xlo xhi
0.0 2.30108302000001 ylo yhi
0.0 2.30108338008624 zlo zhi
1.48180923183389e-05 -6.49579953469956e-05 -3.23687915139771e-05 xy xz yz

Masses

1 55.84500
Atoms

1 1	1.1505329696        1.1505490283        1.1505255057
