 # File generated with Atomsk by kevin on 2022-03-20 17:48:04
 
           8  atoms
           2  atom types
 
      0.000000000000       4.594500000000  xlo xhi
      0.000000000000       4.594500000000  ylo yhi
      0.000000000000       4.571527500000  zlo zhi
 
Masses
 
            1   0.00000000              # XX
            2   51.99610000             # Cr
 
Atoms # atomic
 
         1    2       -0.007799299805       0.001648062503       0.000438864589
         2    3        2.302864346545       2.297989542612       2.294118601540
         3    2       -0.007799299805       2.298898062503       2.286202614589
         4    3        2.302864346545       0.000739542612       0.008354851540
         5    2        2.289450700195       2.298898062503       0.000438864589
         6    3       -0.007799299805       0.001648062503       2.286202614589
         7    2        2.289450700195       0.001648062503       2.286202614589
         8    3       -0.007799299805       2.298898062503       0.000438864589
