 # File generated with Atomsk by kevin on 2022-03-20 17:48:04
 
           8  atoms
           2  atom types
 
      0.000000000000       4.594500000000  xlo xhi
      0.000000000000       4.594500000000  ylo yhi
      0.000000000000       4.594500000000  zlo zhi
     -0.022972500000       0.000000000000       0.000000000000  xy xz yz
 
Masses
 
            1   0.00000000              # XX
            2   51.99610000             # Cr
 
Atoms # atomic
 
         1    2        0.003526894506       0.009483589622      -0.006391031128
         2    3        2.295465845846       2.288072651747       2.301607132319
         3    2       -0.007959355494       2.306733589622       2.290858968872
         4    3        2.306952095846      -0.009177348253       0.004357132319
         5    2        2.289290644506       2.306733589622      -0.006391031128
         6    3        0.003526894506       0.009483589622       2.290858968872
         7    2        2.300776894506       0.009483589622       2.290858968872
         8    3       -0.007959355494       2.306733589622      -0.006391031128
