 # File generated with Atomsk by kevin on 2022-03-20 17:48:04
 
           8  atoms
           2  atom types
 
      0.000000000000       4.594500000000  xlo xhi
      0.000000000000       4.594500000000  ylo yhi
      0.000000000000       4.594500000000  zlo zhi
      0.000000000000       0.000000000000      -0.022972500000  xy xz yz
 
Masses
 
            1   0.00000000              # XX
            2   51.99610000             # Cr
 
Atoms # atomic
 
         1    2       -0.005765696853       0.002453761066       0.005727635972
         2    3        2.289297470918       2.278303776070       2.297352194955
         3    2       -0.005765696853       2.288217511066       2.302977635972
         4    3        2.289297470918      -0.007459973930       0.000102194955
         5    2        2.291484303147       2.299703761066       0.005727635972
         6    3       -0.005765696853      -0.009032488934       2.302977635972
         7    2        2.291484303147      -0.009032488934       2.302977635972
         8    3       -0.005765696853       2.299703761066       0.005727635972
