 # File generated with Atomsk by kevin on 2022-03-20 17:48:04
 
           8  atoms
           2  atom types
 
      0.000000000000       4.571527500000  xlo xhi
      0.000000000000       4.594500000000  ylo yhi
      0.000000000000       4.594500000000  zlo zhi
 
Masses
 
            1   0.00000000              # XX
            2   51.99610000             # Cr
 
Atoms # atomic
 
         1    2       -0.007165112210       0.006748307788      -0.000409438964
         2    3        2.279143161574       2.298473486263       2.295014139313
         3    2       -0.007165112210       2.303998307788       2.296840561036
         4    3        2.279143161574       0.001223486263      -0.002235860687
         5    2        2.278598637790       2.303998307788      -0.000409438964
         6    3       -0.007165112210       0.006748307788       2.296840561036
         7    2        2.278598637790       0.006748307788       2.296840561036
         8    3       -0.007165112210       2.303998307788      -0.000409438964
