 # File generated with Atomsk by kevin on 2022-03-20 17:48:04
 
           8  atoms
           2  atom types
 
      0.000000000000       4.594500000000  xlo xhi
      0.000000000000       4.594500000000  ylo yhi
      0.000000000000       4.594500000000  zlo zhi
      0.000000000000      -0.022972500000       0.000000000000  xy xz yz
 
Masses
 
            1   0.00000000              # XX
            2   51.99610000             # Cr
 
Atoms # atomic
 
         1    2       -0.008212026917       0.009703662209      -0.002429808261
         2    3        2.284056078622       2.291893494324       2.288271788868
         3    2       -0.019698276917       2.306953662209       2.294820191739
         4    3        2.295542328622      -0.005356505676      -0.008978211132
         5    2        2.289037973083       2.306953662209      -0.002429808261
         6    3       -0.019698276917       0.009703662209       2.294820191739
         7    2        2.277551723083       0.009703662209       2.294820191739
         8    3       -0.008212026917       2.306953662209      -0.002429808261
