 # File generated with Atomsk by kevin on 2022-03-20 17:48:04
 
           8  atoms
           2  atom types
 
      0.000000000000       4.594500000000  xlo xhi
      0.000000000000       4.571527500000  ylo yhi
      0.000000000000       4.594500000000  zlo zhi
 
Masses
 
            1   0.00000000              # XX
            2   51.99610000             # Cr
 
Atoms # atomic
 
         1    2        0.003571847524       0.001439721364      -0.002242581790
         2    3        2.300310101706       2.277029508517       2.302092063812
         3    2        0.003571847524       2.287203471364       2.295007418210
         4    3        2.300310101706      -0.008734241483       0.004842063812
         5    2        2.300821847524       2.287203471364      -0.002242581790
         6    3        0.003571847524       0.001439721364       2.295007418210
         7    2        2.300821847524       0.001439721364       2.295007418210
         8    3        0.003571847524       2.287203471364      -0.002242581790
