 # File generated with Atomsk by kevin on 2022-03-20 17:48:03
 
           8  atoms
           2  atom types
 
      0.000000000000       4.594500000000  xlo xhi
      0.000000000000       4.594500000000  ylo yhi
      0.000000000000       4.594500000000  zlo zhi
      0.000000000000       0.000000000000       0.022972500000  xy xz yz
 
Masses
 
            1   0.00000000              # XX
            2   51.99610000             # Cr
 
Atoms # atomic
 
         1    2       -0.003061408139      -0.007136204024       0.003145599171
         2    3        2.292665621699       2.302753802620       2.294610712384
         3    2       -0.003061408139       2.301600045976       2.300395599171
         4    3        2.292665621699      -0.005982447380      -0.002639287616
         5    2        2.294188591861       2.290113795976       0.003145599171
         6    3       -0.003061408139       0.004350045976       2.300395599171
         7    2        2.294188591861       0.004350045976       2.300395599171
         8    3       -0.003061408139       2.290113795976       0.003145599171
