 # File generated with Atomsk by kevin on 2022-03-20 17:48:03
 
           8  atoms
           2  atom types
 
      0.000000000000       4.617472500000  xlo xhi
      0.000000000000       4.594500000000  ylo yhi
      0.000000000000       4.594500000000  zlo zhi
 
Masses
 
            1   0.00000000              # XX
            2   51.99610000             # Cr
 
Atoms # atomic
 
         1    2       -0.001105820638      -0.005313473220       0.000277767324
         2    3        2.302258935103       2.304067226886       2.291693936038
         3    2       -0.001105820638       2.291936526780       2.297527767324
         4    3        2.302258935103       0.006817226886      -0.005556063962
         5    2        2.307630429362       2.291936526780       0.000277767324
         6    3       -0.001105820638      -0.005313473220       2.297527767324
         7    2        2.307630429362      -0.005313473220       2.297527767324
         8    3       -0.001105820638       2.291936526780       0.000277767324
