 # File generated with Atomsk by kevin on 2022-03-20 17:48:03
 
           8  atoms
           2  atom types
 
      0.000000000000       4.594500000000  xlo xhi
      0.000000000000       4.594500000000  ylo yhi
      0.000000000000       4.617472500000  zlo zhi
 
Masses
 
            1   0.00000000              # XX
            2   51.99610000             # Cr
 
Atoms # atomic
 
         1    2        0.004225515592       0.006991802721      -0.005076879699
         2    3        2.305240889460       2.287824954930       2.308700887180
         3    2        0.004225515592       2.304241802721       2.303659370301
         4    3        2.305240889460      -0.009425045070      -0.000035362820
         5    2        2.301475515592       2.304241802721      -0.005076879699
         6    3        0.004225515592       0.006991802721       2.303659370301
         7    2        2.301475515592       0.006991802721       2.303659370301
         8    3        0.004225515592       2.304241802721      -0.005076879699
