 # File generated with Atomsk by kevin on 2022-03-20 17:48:04
 
           8  atoms
           2  atom types
 
      0.000000000000       4.594500000000  xlo xhi
      0.000000000000       4.594500000000  ylo yhi
      0.000000000000       4.594500000000  zlo zhi
      0.022972500000       0.000000000000       0.000000000000  xy xz yz
 
Masses
 
            1   0.00000000              # XX
            2   51.99610000             # Cr
 
Atoms # atomic
 
         1    2       -0.006224604614      -0.004803831491      -0.002306368293
         2    3        2.307152903458       2.306426159492       2.293859633375
         3    2        0.005261645386       2.292446168509       2.294943631707
         4    3        2.295666653458       0.009176159492      -0.003390366625
         5    2        2.302511645386       2.292446168509      -0.002306368293
         6    3       -0.006224604614      -0.004803831491       2.294943631707
         7    2        2.291025395386      -0.004803831491       2.294943631707
         8    3        0.005261645386       2.292446168509      -0.002306368293
