 # File generated with Atomsk by kevin on 2022-03-20 17:48:03
 
           8  atoms
           2  atom types
 
      0.000000000000       4.594500000000  xlo xhi
      0.000000000000       4.617472500000  ylo yhi
      0.000000000000       4.594500000000  zlo zhi
 
Masses
 
            1   0.00000000              # XX
            2   51.99610000             # Cr
 
Atoms # atomic
 
         1    2       -0.007931476797       0.004228638951      -0.000723130674
         2    3        2.292706428367       2.313862547328       2.298507044542
         3    2       -0.007931476797       2.312964888951       2.296526869326
         4    3        2.292706428367       0.005126297328       0.001257044542
         5    2        2.289318523203       2.312964888951      -0.000723130674
         6    3       -0.007931476797       0.004228638951       2.296526869326
         7    2        2.289318523203       0.004228638951       2.296526869326
         8    3       -0.007931476797       2.312964888951      -0.000723130674
