 # File generated with Atomsk by kevin on 2022-03-20 17:48:04
 
           8  atoms
           2  atom types
 
      0.000000000000       4.594500000000  xlo xhi
      0.000000000000       4.594500000000  ylo yhi
      0.000000000000       4.594500000000  zlo zhi
      0.000000000000       0.022972500000       0.000000000000  xy xz yz
 
Masses
 
            1   0.00000000              # XX
            2   51.99610000             # Cr
 
Atoms # atomic
 
         1    2       -0.005105724855       0.010203782775      -0.004119517381
         2    3        2.301839904851       2.291601770639       2.296407184748
         3    2        0.006380525145       2.307453782775       2.293130482619
         4    3        2.290353654851      -0.005648229361      -0.000842815252
         5    2        2.292144275145       2.307453782775      -0.004119517381
         6    3        0.006380525145       0.010203782775       2.293130482619
         7    2        2.303630525145       0.010203782775       2.293130482619
         8    3       -0.005105724855       2.307453782775      -0.004119517381
