LAMMPS data file

4 atoms
1 atom types

0.0 4.16371893186144 xlo xhi
0.0 3.99191747918718 ylo yhi
0.0 3.9553634388219 zlo zhi
0 0 0 xy xz yz


Atoms

1 1 -0.196411 4.0503 4.08464
2 1 0.00332181 1.95995 2.02247
3 1 1.99704 -0.0339037 1.9448
4 1 2.11231 2.14191 -0.0292691
