
     Program PWSCF v.6.7MaX starts on 10Feb2022 at 22: 1:53 

     This program is part of the open-source Quantum ESPRESSO suite
     for quantum simulation of materials; please cite
         "P. Giannozzi et al., J. Phys.:Condens. Matter 21 395502 (2009);
         "P. Giannozzi et al., J. Phys.:Condens. Matter 29 465901 (2017);
          URL http://www.quantum-espresso.org", 
     in publications or presentations arising from this work. More details at
     http://www.quantum-espresso.org/quote

     Parallel version (MPI), running on    24 processors

     MPI processes distributed on     1 nodes
     R & G space division:  proc/nbgrp/npool/nimage =      24
     Reading input from /home/kevin/QE_CoCrFeMnNi/CoCrFeMnNi/Opt/binary/Opt-B1-MnNi/Mix/MD/600K_0.0001Gpa-B1-MnNi/600K_0.0001Gpa-B1-MnNi.in

     Current dimensions of program PWSCF are:
     Max number of different atomic species (ntypx) = 10
     Max number of k-points (npk) =  40000
     Max angular momentum in pseudopotentials (lmaxx) =  3

     File ./pwscf.md deleted, as requested

     Subspace diagonalization in iterative solution of the eigenvalue problem:
     a serial algorithm will be used

     Found symmetry operation: I + (  0.0000  0.5000 -0.5000)
     This is a supercell, fractional translations are disabled

     Parallelization info
     --------------------
     sticks:   dense  smooth     PW     G-vecs:    dense   smooth      PW
     Min         274      92     25                16794     3232     461
     Max         275      93     26                16797     3235     465
     Sum        6589    2209    601               403103    77605   11123



     bravais-lattice index     =            0
     lattice parameter (alat)  =       8.7604  a.u.
     unit-cell volume          =     672.3117 (a.u.)^3
     number of atoms/cell      =            8
     number of atomic types    =            2
     number of electrons       =       132.00
     number of Kohn-Sham states=           79
     kinetic-energy cutoff     =      90.0000  Ry
     charge density cutoff     =    1080.0000  Ry
     scf convergence threshold =      1.0E-08
     mixing beta               =       0.2000
     number of iterations used =            4  plain     mixing
     energy convergence thresh.=      0.0E+00
     force convergence thresh. =      0.0E+00
     press convergence thresh. =      0.0E+00
     Exchange-correlation=  SLA  PW   PBX  PBC
                           (   1   4   3   4   0   0   0)
     nstep                     =          102


     celldm(1)=   8.760392  celldm(2)=   0.000000  celldm(3)=   0.000000
     celldm(4)=   0.000000  celldm(5)=   0.000000  celldm(6)=   0.000000

     crystal axes: (cart. coord. in units of alat)
               a(1) = (   1.000000   0.000000   0.000000 )  
               a(2) = (   0.000000   1.000000   0.000000 )  
               a(3) = (   0.000000   0.000000   1.000000 )  

     reciprocal axes: (cart. coord. in units 2 pi/alat)
               b(1) = (  1.000000  0.000000  0.000000 )  
               b(2) = (  0.000000  1.000000  0.000000 )  
               b(3) = (  0.000000  0.000000  1.000000 )  


     PseudoPot. # 1 for Ni read from file:
     /opt/QEpot/SSSP_efficiency_pseudos/ni_pbe_v1.4.uspp.F.UPF
     MD5 check sum: 1ee80287db30b12d2bc1f57a5b5d6409
     Pseudo is Ultrasoft + core correction, Zval = 18.0
     Generated by new atomic code, or converted to UPF format
     Using radial grid of  865 points,  6 beta functions with: 
                l(1) =   0
                l(2) =   0
                l(3) =   1
                l(4) =   1
                l(5) =   2
                l(6) =   2
     Q(r) pseudized with 10 coefficients,  rinner =    0.980   0.980   0.980
                                                       0.980   0.980

     PseudoPot. # 2 for Mn read from file:
     /opt/QEpot/SSSP_efficiency_pseudos/mn_pbe_v1.5.uspp.F.UPF
     MD5 check sum: 82ef2b46521d7a7d9e736dc3972e4928
     Pseudo is Ultrasoft + core correction, Zval = 15.0
     Generated by new atomic code, or converted to UPF format
     Using radial grid of  859 points,  6 beta functions with: 
                l(1) =   0
                l(2) =   0
                l(3) =   1
                l(4) =   1
                l(5) =   2
                l(6) =   2
     Q(r) pseudized with  8 coefficients,  rinner =    0.950   0.950   0.950
                                                       0.950   0.950

     atomic species   valence    mass     pseudopotential
        Ni            18.00    58.69300     Ni( 1.00)
        Mn            15.00    54.93800     Mn( 1.00)

      cell mass =  34.53968 AMU 

     Starting magnetic structure 
     atomic species   magnetization
        Ni           0.000
        Mn           0.000

     No symmetry found



   Cartesian axes

     site n.     atom                  positions (alat units)
         1           Ni  tau(   1) = (   0.0000000   0.5000000   0.0000000  )
         2           Mn  tau(   2) = (   0.5000000   0.0000000   0.5000000  )
         3           Ni  tau(   3) = (   0.0000000   0.0000000   0.5000000  )
         4           Mn  tau(   4) = (   0.5000000   0.5000000   0.0000000  )
         5           Ni  tau(   5) = (   0.5000000   0.0000000   0.0000000  )
         6           Mn  tau(   6) = (   0.0000000   0.5000000   0.5000000  )
         7           Ni  tau(   7) = (   0.5000000   0.5000000   0.5000000  )
         8           Mn  tau(   8) = (   0.0000000   0.0000000   0.0000000  )

     number of k points=    63  Gaussian smearing, width (Ry)=  0.0100
                       cart. coord. in units 2pi/alat
        k(    1) = (   0.0000000   0.0000000   0.0000000), wk =   0.0080000
        k(    2) = (   0.0000000   0.0000000   0.2000000), wk =   0.0160000
        k(    3) = (   0.0000000   0.0000000   0.4000000), wk =   0.0160000
        k(    4) = (   0.0000000   0.2000000   0.0000000), wk =   0.0160000
        k(    5) = (   0.0000000   0.2000000   0.2000000), wk =   0.0160000
        k(    6) = (   0.0000000   0.2000000   0.4000000), wk =   0.0160000
        k(    7) = (   0.0000000   0.2000000  -0.4000000), wk =   0.0160000
        k(    8) = (   0.0000000   0.2000000  -0.2000000), wk =   0.0160000
        k(    9) = (   0.0000000   0.4000000   0.0000000), wk =   0.0160000
        k(   10) = (   0.0000000   0.4000000   0.2000000), wk =   0.0160000
        k(   11) = (   0.0000000   0.4000000   0.4000000), wk =   0.0160000
        k(   12) = (   0.0000000   0.4000000  -0.4000000), wk =   0.0160000
        k(   13) = (   0.0000000   0.4000000  -0.2000000), wk =   0.0160000
        k(   14) = (   0.2000000   0.0000000   0.0000000), wk =   0.0160000
        k(   15) = (   0.2000000   0.0000000   0.2000000), wk =   0.0160000
        k(   16) = (   0.2000000   0.0000000   0.4000000), wk =   0.0160000
        k(   17) = (   0.2000000   0.0000000  -0.4000000), wk =   0.0160000
        k(   18) = (   0.2000000   0.0000000  -0.2000000), wk =   0.0160000
        k(   19) = (   0.2000000   0.2000000   0.0000000), wk =   0.0160000
        k(   20) = (   0.2000000   0.2000000   0.2000000), wk =   0.0160000
        k(   21) = (   0.2000000   0.2000000   0.4000000), wk =   0.0160000
        k(   22) = (   0.2000000   0.2000000  -0.4000000), wk =   0.0160000
        k(   23) = (   0.2000000   0.2000000  -0.2000000), wk =   0.0160000
        k(   24) = (   0.2000000   0.4000000   0.0000000), wk =   0.0160000
        k(   25) = (   0.2000000   0.4000000   0.2000000), wk =   0.0160000
        k(   26) = (   0.2000000   0.4000000   0.4000000), wk =   0.0160000
        k(   27) = (   0.2000000   0.4000000  -0.4000000), wk =   0.0160000
        k(   28) = (   0.2000000   0.4000000  -0.2000000), wk =   0.0160000
        k(   29) = (   0.2000000  -0.4000000   0.0000000), wk =   0.0160000
        k(   30) = (   0.2000000  -0.4000000   0.2000000), wk =   0.0160000
        k(   31) = (   0.2000000  -0.4000000   0.4000000), wk =   0.0160000
        k(   32) = (   0.2000000  -0.4000000  -0.4000000), wk =   0.0160000
        k(   33) = (   0.2000000  -0.4000000  -0.2000000), wk =   0.0160000
        k(   34) = (   0.2000000  -0.2000000   0.0000000), wk =   0.0160000
        k(   35) = (   0.2000000  -0.2000000   0.2000000), wk =   0.0160000
        k(   36) = (   0.2000000  -0.2000000   0.4000000), wk =   0.0160000
        k(   37) = (   0.2000000  -0.2000000  -0.4000000), wk =   0.0160000
        k(   38) = (   0.2000000  -0.2000000  -0.2000000), wk =   0.0160000
        k(   39) = (   0.4000000   0.0000000   0.0000000), wk =   0.0160000
        k(   40) = (   0.4000000   0.0000000   0.2000000), wk =   0.0160000
        k(   41) = (   0.4000000   0.0000000   0.4000000), wk =   0.0160000
        k(   42) = (   0.4000000   0.0000000  -0.4000000), wk =   0.0160000
        k(   43) = (   0.4000000   0.0000000  -0.2000000), wk =   0.0160000
        k(   44) = (   0.4000000   0.2000000   0.0000000), wk =   0.0160000
        k(   45) = (   0.4000000   0.2000000   0.2000000), wk =   0.0160000
        k(   46) = (   0.4000000   0.2000000   0.4000000), wk =   0.0160000
        k(   47) = (   0.4000000   0.2000000  -0.4000000), wk =   0.0160000
        k(   48) = (   0.4000000   0.2000000  -0.2000000), wk =   0.0160000
        k(   49) = (   0.4000000   0.4000000   0.0000000), wk =   0.0160000
        k(   50) = (   0.4000000   0.4000000   0.2000000), wk =   0.0160000
        k(   51) = (   0.4000000   0.4000000   0.4000000), wk =   0.0160000
        k(   52) = (   0.4000000   0.4000000  -0.4000000), wk =   0.0160000
        k(   53) = (   0.4000000   0.4000000  -0.2000000), wk =   0.0160000
        k(   54) = (   0.4000000  -0.4000000   0.0000000), wk =   0.0160000
        k(   55) = (   0.4000000  -0.4000000   0.2000000), wk =   0.0160000
        k(   56) = (   0.4000000  -0.4000000   0.4000000), wk =   0.0160000
        k(   57) = (   0.4000000  -0.4000000  -0.4000000), wk =   0.0160000
        k(   58) = (   0.4000000  -0.4000000  -0.2000000), wk =   0.0160000
        k(   59) = (   0.4000000  -0.2000000   0.0000000), wk =   0.0160000
        k(   60) = (   0.4000000  -0.2000000   0.2000000), wk =   0.0160000
        k(   61) = (   0.4000000  -0.2000000   0.4000000), wk =   0.0160000
        k(   62) = (   0.4000000  -0.2000000  -0.4000000), wk =   0.0160000
        k(   63) = (   0.4000000  -0.2000000  -0.2000000), wk =   0.0160000

     Dense  grid:   403103 G-vectors     FFT dimensions: (  96,  96,  96)

     Smooth grid:    77605 G-vectors     FFT dimensions: (  54,  54,  54)

     Estimated max dynamical RAM per process >     137.38 MB

     Estimated total dynamical RAM >       3.22 GB

     Check: negative core charge=   -0.000015
     Generating pointlists ...
     new r_m :   0.2063 (alat units)  1.8068 (a.u.) for type    1
     new r_m :   0.2063 (alat units)  1.8068 (a.u.) for type    2

     Initial potential from superposition of free atoms

     starting charge  121.99966, renormalised to  132.00000
     Starting wfcs are  104 randomized atomic wfcs

     total cpu time spent up to now is       13.9 secs

     Self-consistent Calculation

     iteration #  1     ecut=    90.00 Ry     beta= 0.20
     CG style diagonalization
     ethr =  1.00E-02,  avg # of iterations =  3.4

     total cpu time spent up to now is       51.1 secs

     total energy              =   -2188.45110460 Ry
     estimated scf accuracy    <     161.43462012 Ry

     total magnetization       =     0.00 Bohr mag/cell
     absolute magnetization    =     0.02 Bohr mag/cell

     iteration #  2     ecut=    90.00 Ry     beta= 0.20
     CG style diagonalization
     c_bands:  1 eigenvalues not converged
     ethr =  1.00E-02,  avg # of iterations =  5.0

     total cpu time spent up to now is      101.0 secs

     total energy              =   -2215.11371290 Ry
     estimated scf accuracy    <      64.94911840 Ry

     total magnetization       =     0.03 Bohr mag/cell
     absolute magnetization    =     0.12 Bohr mag/cell

     iteration #  3     ecut=    90.00 Ry     beta= 0.20
     CG style diagonalization
     ethr =  1.00E-02,  avg # of iterations =  3.6

     total cpu time spent up to now is      137.2 secs

     total energy              =   -2211.53930395 Ry
     estimated scf accuracy    <      13.72498376 Ry

     total magnetization       =    -0.03 Bohr mag/cell
     absolute magnetization    =     0.11 Bohr mag/cell

     iteration #  4     ecut=    90.00 Ry     beta= 0.20
     CG style diagonalization
     ethr =  1.00E-02,  avg # of iterations =  3.8

     total cpu time spent up to now is      175.2 secs

     total energy              =   -2206.36067271 Ry
     estimated scf accuracy    <     125.41805032 Ry

     total magnetization       =    -0.04 Bohr mag/cell
     absolute magnetization    =     0.12 Bohr mag/cell

     iteration #  5     ecut=    90.00 Ry     beta= 0.20
     CG style diagonalization
     ethr =  1.00E-02,  avg # of iterations =  3.7

     total cpu time spent up to now is      212.2 secs

     total energy              =   -2215.75773300 Ry
     estimated scf accuracy    <       9.83973485 Ry

     total magnetization       =     0.03 Bohr mag/cell
     absolute magnetization    =     0.14 Bohr mag/cell

     iteration #  6     ecut=    90.00 Ry     beta= 0.20
     CG style diagonalization
     ethr =  7.45E-03,  avg # of iterations =  3.2

     total cpu time spent up to now is      244.7 secs

     total energy              =   -2216.74521811 Ry
     estimated scf accuracy    <      11.36487334 Ry

     total magnetization       =    -0.00 Bohr mag/cell
     absolute magnetization    =     0.07 Bohr mag/cell

     iteration #  7     ecut=    90.00 Ry     beta= 0.20
     CG style diagonalization
     ethr =  7.45E-03,  avg # of iterations =  3.0

     total cpu time spent up to now is      275.1 secs

     total energy              =   -2217.27958251 Ry
     estimated scf accuracy    <       0.62816893 Ry

     total magnetization       =    -0.01 Bohr mag/cell
     absolute magnetization    =     0.08 Bohr mag/cell

     iteration #  8     ecut=    90.00 Ry     beta= 0.20
     CG style diagonalization
     ethr =  4.76E-04,  avg # of iterations =  3.2

     total cpu time spent up to now is      307.7 secs

     total energy              =   -2217.34402477 Ry
     estimated scf accuracy    <       1.22611754 Ry

     total magnetization       =    -0.02 Bohr mag/cell
     absolute magnetization    =     0.06 Bohr mag/cell

     iteration #  9     ecut=    90.00 Ry     beta= 0.20
     CG style diagonalization
     ethr =  4.76E-04,  avg # of iterations =  3.0

     total cpu time spent up to now is      338.3 secs

     total energy              =   -2217.32370114 Ry
     estimated scf accuracy    <       0.83045097 Ry

     total magnetization       =    -0.00 Bohr mag/cell
     absolute magnetization    =     0.04 Bohr mag/cell

     iteration # 10     ecut=    90.00 Ry     beta= 0.20
     CG style diagonalization
     ethr =  4.76E-04,  avg # of iterations =  3.0

     total cpu time spent up to now is      368.7 secs

     total energy              =   -2217.29837716 Ry
     estimated scf accuracy    <       0.45796864 Ry

     total magnetization       =    -0.01 Bohr mag/cell
     absolute magnetization    =     0.04 Bohr mag/cell

     iteration # 11     ecut=    90.00 Ry     beta= 0.20
     CG style diagonalization
     ethr =  3.47E-04,  avg # of iterations =  3.0

     total cpu time spent up to now is      399.2 secs

     total energy              =   -2217.31280069 Ry
     estimated scf accuracy    <       0.01495918 Ry

     total magnetization       =    -0.01 Bohr mag/cell
     absolute magnetization    =     0.04 Bohr mag/cell

     iteration # 12     ecut=    90.00 Ry     beta= 0.20
     CG style diagonalization
     c_bands:  2 eigenvalues not converged
     c_bands:  1 eigenvalues not converged
     c_bands:  1 eigenvalues not converged
     c_bands:  1 eigenvalues not converged
     c_bands:  1 eigenvalues not converged
     c_bands:  2 eigenvalues not converged
     ethr =  1.13E-05,  avg # of iterations =  3.5

     total cpu time spent up to now is      434.4 secs

     total energy              =   -2217.31361280 Ry
     estimated scf accuracy    <       0.03805727 Ry

     total magnetization       =    -0.01 Bohr mag/cell
     absolute magnetization    =     0.05 Bohr mag/cell

     iteration # 13     ecut=    90.00 Ry     beta= 0.20
     CG style diagonalization
     c_bands:  1 eigenvalues not converged
     ethr =  1.13E-05,  avg # of iterations =  3.0

     total cpu time spent up to now is      465.1 secs

     total energy              =   -2217.31478432 Ry
     estimated scf accuracy    <       0.04780447 Ry

     total magnetization       =    -0.01 Bohr mag/cell
     absolute magnetization    =     0.05 Bohr mag/cell

     iteration # 14     ecut=    90.00 Ry     beta= 0.20
     CG style diagonalization
     c_bands:  1 eigenvalues not converged
     ethr =  1.13E-05,  avg # of iterations =  3.0

     total cpu time spent up to now is      495.6 secs

     total energy              =   -2217.31486815 Ry
     estimated scf accuracy    <       0.01656325 Ry

     total magnetization       =    -0.01 Bohr mag/cell
     absolute magnetization    =     0.05 Bohr mag/cell

     iteration # 15     ecut=    90.00 Ry     beta= 0.20
     CG style diagonalization
     c_bands:  1 eigenvalues not converged
     ethr =  1.13E-05,  avg # of iterations =  3.0

     total cpu time spent up to now is      526.1 secs

     total energy              =   -2217.31283823 Ry
     estimated scf accuracy    <       0.18193296 Ry

     total magnetization       =    -0.01 Bohr mag/cell
     absolute magnetization    =     0.06 Bohr mag/cell

     iteration # 16     ecut=    90.00 Ry     beta= 0.20
     CG style diagonalization
     ethr =  1.13E-05,  avg # of iterations =  3.0

     total cpu time spent up to now is      556.5 secs

     total energy              =   -2217.31502499 Ry
     estimated scf accuracy    <       0.01240828 Ry

     total magnetization       =    -0.01 Bohr mag/cell
     absolute magnetization    =     0.07 Bohr mag/cell

     iteration # 17     ecut=    90.00 Ry     beta= 0.20
     CG style diagonalization
     ethr =  9.40E-06,  avg # of iterations =  3.0

     total cpu time spent up to now is      586.9 secs

     total energy              =   -2217.31497490 Ry
     estimated scf accuracy    <       0.02191176 Ry

     total magnetization       =    -0.01 Bohr mag/cell
     absolute magnetization    =     0.07 Bohr mag/cell

     iteration # 18     ecut=    90.00 Ry     beta= 0.20
     CG style diagonalization
     ethr =  9.40E-06,  avg # of iterations =  3.0

     total cpu time spent up to now is      617.3 secs

     total energy              =   -2217.31496696 Ry
     estimated scf accuracy    <       0.02224326 Ry

     total magnetization       =    -0.02 Bohr mag/cell
     absolute magnetization    =     0.07 Bohr mag/cell

     iteration # 19     ecut=    90.00 Ry     beta= 0.20
     CG style diagonalization
     ethr =  9.40E-06,  avg # of iterations =  3.0

     total cpu time spent up to now is      647.7 secs

     total energy              =   -2217.31531914 Ry
     estimated scf accuracy    <       0.00768196 Ry

     total magnetization       =    -0.02 Bohr mag/cell
     absolute magnetization    =     0.09 Bohr mag/cell

     iteration # 20     ecut=    90.00 Ry     beta= 0.20
     CG style diagonalization
     c_bands:  1 eigenvalues not converged
     c_bands:  1 eigenvalues not converged
     c_bands:  1 eigenvalues not converged
     c_bands:  1 eigenvalues not converged
     ethr =  5.82E-06,  avg # of iterations =  3.0

     total cpu time spent up to now is      678.2 secs

     total energy              =   -2217.31530588 Ry
     estimated scf accuracy    <       0.01810871 Ry

     total magnetization       =    -0.02 Bohr mag/cell
     absolute magnetization    =     0.09 Bohr mag/cell

     iteration # 21     ecut=    90.00 Ry     beta= 0.20
     CG style diagonalization
     ethr =  5.82E-06,  avg # of iterations =  3.0

     total cpu time spent up to now is      708.5 secs

     total energy              =   -2217.31530986 Ry
     estimated scf accuracy    <       0.00296648 Ry

     total magnetization       =    -0.02 Bohr mag/cell
     absolute magnetization    =     0.10 Bohr mag/cell

     iteration # 22     ecut=    90.00 Ry     beta= 0.20
     CG style diagonalization
     c_bands:  1 eigenvalues not converged
     c_bands:  1 eigenvalues not converged
     c_bands:  1 eigenvalues not converged
     c_bands:  1 eigenvalues not converged
     c_bands:  1 eigenvalues not converged
     c_bands:  1 eigenvalues not converged
     c_bands:  1 eigenvalues not converged
     c_bands:  1 eigenvalues not converged
     c_bands:  1 eigenvalues not converged
     c_bands:  1 eigenvalues not converged
     c_bands:  1 eigenvalues not converged
     ethr =  2.25E-06,  avg # of iterations =  3.0

     total cpu time spent up to now is      739.2 secs

     total energy              =   -2217.31421996 Ry
     estimated scf accuracy    <       0.09865898 Ry

     total magnetization       =    -0.02 Bohr mag/cell
     absolute magnetization    =     0.11 Bohr mag/cell

     iteration # 23     ecut=    90.00 Ry     beta= 0.20
     CG style diagonalization
     c_bands:  1 eigenvalues not converged
     ethr =  2.25E-06,  avg # of iterations =  3.0

     total cpu time spent up to now is      769.8 secs

     total energy              =   -2217.31550882 Ry
     estimated scf accuracy    <       0.00278790 Ry

     total magnetization       =    -0.02 Bohr mag/cell
     absolute magnetization    =     0.12 Bohr mag/cell

     iteration # 24     ecut=    90.00 Ry     beta= 0.20
     CG style diagonalization
     c_bands:  1 eigenvalues not converged
     ethr =  2.11E-06,  avg # of iterations =  3.0

     total cpu time spent up to now is      800.1 secs

     total energy              =   -2217.31551714 Ry
     estimated scf accuracy    <       0.00416417 Ry

     total magnetization       =    -0.03 Bohr mag/cell
     absolute magnetization    =     0.13 Bohr mag/cell

     iteration # 25     ecut=    90.00 Ry     beta= 0.20
     CG style diagonalization
     c_bands:  1 eigenvalues not converged
     ethr =  2.11E-06,  avg # of iterations =  3.0

     total cpu time spent up to now is      830.5 secs

     total energy              =   -2217.31556796 Ry
     estimated scf accuracy    <       0.00137272 Ry

     total magnetization       =    -0.03 Bohr mag/cell
     absolute magnetization    =     0.15 Bohr mag/cell

     iteration # 26     ecut=    90.00 Ry     beta= 0.20
     CG style diagonalization
     c_bands:  1 eigenvalues not converged
     ethr =  1.04E-06,  avg # of iterations =  3.0

     total cpu time spent up to now is      860.8 secs

     total energy              =   -2217.31557614 Ry
     estimated scf accuracy    <       0.00176625 Ry

     total magnetization       =    -0.04 Bohr mag/cell
     absolute magnetization    =     0.17 Bohr mag/cell

     iteration # 27     ecut=    90.00 Ry     beta= 0.20
     CG style diagonalization
     c_bands:  1 eigenvalues not converged
     c_bands:  1 eigenvalues not converged
     ethr =  1.04E-06,  avg # of iterations =  3.0

     total cpu time spent up to now is      891.1 secs

     total energy              =   -2217.31559584 Ry
     estimated scf accuracy    <       0.00210736 Ry

     total magnetization       =    -0.04 Bohr mag/cell
     absolute magnetization    =     0.18 Bohr mag/cell

     iteration # 28     ecut=    90.00 Ry     beta= 0.20
     CG style diagonalization
     ethr =  1.04E-06,  avg # of iterations =  3.0

     total cpu time spent up to now is      921.5 secs

     total energy              =   -2217.31562135 Ry
     estimated scf accuracy    <       0.00070286 Ry

     total magnetization       =    -0.04 Bohr mag/cell
     absolute magnetization    =     0.20 Bohr mag/cell

     iteration # 29     ecut=    90.00 Ry     beta= 0.20
     CG style diagonalization
     ethr =  5.32E-07,  avg # of iterations =  3.0

     total cpu time spent up to now is      951.8 secs

     total energy              =   -2217.31559429 Ry
     estimated scf accuracy    <       0.00457797 Ry

     total magnetization       =    -0.05 Bohr mag/cell
     absolute magnetization    =     0.23 Bohr mag/cell

     iteration # 30     ecut=    90.00 Ry     beta= 0.20
     CG style diagonalization
     ethr =  5.32E-07,  avg # of iterations =  3.0

     total cpu time spent up to now is      982.0 secs

     total energy              =   -2217.31565039 Ry
     estimated scf accuracy    <       0.00162719 Ry

     total magnetization       =    -0.05 Bohr mag/cell
     absolute magnetization    =     0.25 Bohr mag/cell

     iteration # 31     ecut=    90.00 Ry     beta= 0.20
     CG style diagonalization
     ethr =  5.32E-07,  avg # of iterations =  3.0

     total cpu time spent up to now is     1012.3 secs

     total energy              =   -2217.31568652 Ry
     estimated scf accuracy    <       0.00038164 Ry

     total magnetization       =    -0.06 Bohr mag/cell
     absolute magnetization    =     0.26 Bohr mag/cell

     iteration # 32     ecut=    90.00 Ry     beta= 0.20
     CG style diagonalization
     ethr =  2.89E-07,  avg # of iterations =  3.0

     total cpu time spent up to now is     1042.6 secs

     total energy              =   -2217.31569625 Ry
     estimated scf accuracy    <       0.00069323 Ry

     total magnetization       =    -0.06 Bohr mag/cell
     absolute magnetization    =     0.29 Bohr mag/cell

     iteration # 33     ecut=    90.00 Ry     beta= 0.20
     CG style diagonalization
     ethr =  2.89E-07,  avg # of iterations =  3.0

     total cpu time spent up to now is     1072.8 secs

     total energy              =   -2217.31571909 Ry
     estimated scf accuracy    <       0.00146796 Ry

     total magnetization       =    -0.07 Bohr mag/cell
     absolute magnetization    =     0.31 Bohr mag/cell

     iteration # 34     ecut=    90.00 Ry     beta= 0.20
     CG style diagonalization
     ethr =  2.89E-07,  avg # of iterations =  3.0

     total cpu time spent up to now is     1103.1 secs

     total energy              =   -2217.31573509 Ry
     estimated scf accuracy    <       0.00198659 Ry

     total magnetization       =    -0.08 Bohr mag/cell
     absolute magnetization    =     0.36 Bohr mag/cell

     iteration # 35     ecut=    90.00 Ry     beta= 0.20
     CG style diagonalization
     ethr =  2.89E-07,  avg # of iterations =  3.0

     total cpu time spent up to now is     1133.3 secs

     total energy              =   -2217.31575149 Ry
     estimated scf accuracy    <       0.00055088 Ry

     total magnetization       =    -0.08 Bohr mag/cell
     absolute magnetization    =     0.36 Bohr mag/cell

     iteration # 36     ecut=    90.00 Ry     beta= 0.20
     CG style diagonalization
     c_bands:  1 eigenvalues not converged
     ethr =  2.89E-07,  avg # of iterations =  3.0

     total cpu time spent up to now is     1163.6 secs

     total energy              =   -2217.31576010 Ry
     estimated scf accuracy    <       0.00222350 Ry

     total magnetization       =    -0.08 Bohr mag/cell
     absolute magnetization    =     0.36 Bohr mag/cell

     iteration # 37     ecut=    90.00 Ry     beta= 0.20
     CG style diagonalization
     c_bands:  1 eigenvalues not converged
     ethr =  2.89E-07,  avg # of iterations =  3.0

     total cpu time spent up to now is     1193.8 secs

     total energy              =   -2217.31582475 Ry
     estimated scf accuracy    <       0.00178022 Ry

     total magnetization       =    -0.09 Bohr mag/cell
     absolute magnetization    =     0.42 Bohr mag/cell

     iteration # 38     ecut=    90.00 Ry     beta= 0.20
     CG style diagonalization
     c_bands:  1 eigenvalues not converged
     c_bands:  1 eigenvalues not converged
     c_bands:  1 eigenvalues not converged
     ethr =  2.89E-07,  avg # of iterations =  3.0

     total cpu time spent up to now is     1224.1 secs

     total energy              =   -2217.31585621 Ry
     estimated scf accuracy    <       0.00338937 Ry

     total magnetization       =    -0.10 Bohr mag/cell
     absolute magnetization    =     0.47 Bohr mag/cell

     iteration # 39     ecut=    90.00 Ry     beta= 0.20
     CG style diagonalization
     ethr =  2.89E-07,  avg # of iterations =  3.0

     total cpu time spent up to now is     1254.4 secs

     total energy              =   -2217.31590015 Ry
     estimated scf accuracy    <       0.00396149 Ry

     total magnetization       =    -0.11 Bohr mag/cell
     absolute magnetization    =     0.49 Bohr mag/cell

     iteration # 40     ecut=    90.00 Ry     beta= 0.20
     CG style diagonalization
     ethr =  2.89E-07,  avg # of iterations =  3.0

     total cpu time spent up to now is     1284.6 secs

     total energy              =   -2217.31598779 Ry
     estimated scf accuracy    <       0.00114248 Ry

     total magnetization       =    -0.11 Bohr mag/cell
     absolute magnetization    =     0.51 Bohr mag/cell

     iteration # 41     ecut=    90.00 Ry     beta= 0.20
     CG style diagonalization
     c_bands:  1 eigenvalues not converged
     ethr =  2.89E-07,  avg # of iterations =  3.0

     total cpu time spent up to now is     1314.9 secs

     total energy              =   -2217.31591518 Ry
     estimated scf accuracy    <       0.00868095 Ry

     total magnetization       =    -0.13 Bohr mag/cell
     absolute magnetization    =     0.58 Bohr mag/cell

     iteration # 42     ecut=    90.00 Ry     beta= 0.20
     CG style diagonalization
     c_bands:  1 eigenvalues not converged
     ethr =  2.89E-07,  avg # of iterations =  3.1

     total cpu time spent up to now is     1346.3 secs

     total energy              =   -2217.31597064 Ry
     estimated scf accuracy    <       0.02003347 Ry

     total magnetization       =    -0.14 Bohr mag/cell
     absolute magnetization    =     0.63 Bohr mag/cell

     iteration # 43     ecut=    90.00 Ry     beta= 0.20
     CG style diagonalization
     ethr =  2.89E-07,  avg # of iterations =  3.0

     total cpu time spent up to now is     1376.7 secs

     total energy              =   -2217.31621974 Ry
     estimated scf accuracy    <       0.00242959 Ry

     total magnetization       =    -0.16 Bohr mag/cell
     absolute magnetization    =     0.70 Bohr mag/cell

     iteration # 44     ecut=    90.00 Ry     beta= 0.20
     CG style diagonalization
     c_bands:  1 eigenvalues not converged
     ethr =  2.89E-07,  avg # of iterations =  3.0

     total cpu time spent up to now is     1407.0 secs

     total energy              =   -2217.31583583 Ry
     estimated scf accuracy    <       0.00648582 Ry

     total magnetization       =    -0.15 Bohr mag/cell
     absolute magnetization    =     0.67 Bohr mag/cell

     iteration # 45     ecut=    90.00 Ry     beta= 0.20
     CG style diagonalization
     ethr =  2.89E-07,  avg # of iterations =  3.1

     total cpu time spent up to now is     1437.7 secs

     total energy              =   -2217.31587713 Ry
     estimated scf accuracy    <       0.02483631 Ry

     total magnetization       =    -0.12 Bohr mag/cell
     absolute magnetization    =     0.53 Bohr mag/cell

     iteration # 46     ecut=    90.00 Ry     beta= 0.20
     CG style diagonalization
     c_bands:  1 eigenvalues not converged
     ethr =  2.89E-07,  avg # of iterations =  3.2

     total cpu time spent up to now is     1469.9 secs

     total energy              =   -2217.31682565 Ry
     estimated scf accuracy    <       0.01415232 Ry

     total magnetization       =    -0.22 Bohr mag/cell
     absolute magnetization    =     0.97 Bohr mag/cell

     iteration # 47     ecut=    90.00 Ry     beta= 0.20
     CG style diagonalization
     ethr =  2.89E-07,  avg # of iterations =  3.0

     total cpu time spent up to now is     1500.1 secs

     total energy              =   -2217.31677065 Ry
     estimated scf accuracy    <       0.00603611 Ry

     total magnetization       =    -0.22 Bohr mag/cell
     absolute magnetization    =     0.97 Bohr mag/cell

     iteration # 48     ecut=    90.00 Ry     beta= 0.20
     CG style diagonalization
     ethr =  2.89E-07,  avg # of iterations =  3.0

     total cpu time spent up to now is     1530.4 secs

     total energy              =   -2217.31685947 Ry
     estimated scf accuracy    <       0.00945470 Ry

     total magnetization       =    -0.20 Bohr mag/cell
     absolute magnetization    =     0.91 Bohr mag/cell

     iteration # 49     ecut=    90.00 Ry     beta= 0.20
     CG style diagonalization
     ethr =  2.89E-07,  avg # of iterations =  3.3

     total cpu time spent up to now is     1563.3 secs

     total energy              =   -2217.31709464 Ry
     estimated scf accuracy    <       0.00826723 Ry

     total magnetization       =    -0.23 Bohr mag/cell
     absolute magnetization    =     1.03 Bohr mag/cell

     iteration # 50     ecut=    90.00 Ry     beta= 0.20
     CG style diagonalization
     ethr =  2.89E-07,  avg # of iterations =  3.4

     total cpu time spent up to now is     1597.6 secs

     total energy              =   -2217.31664927 Ry
     estimated scf accuracy    <       0.05141255 Ry

     total magnetization       =    -0.26 Bohr mag/cell
     absolute magnetization    =     1.14 Bohr mag/cell

     iteration # 51     ecut=    90.00 Ry     beta= 0.20
     CG style diagonalization
     c_bands:  1 eigenvalues not converged
     ethr =  2.89E-07,  avg # of iterations =  3.8

     total cpu time spent up to now is     1635.8 secs

     total energy              =   -2217.31514525 Ry
     estimated scf accuracy    <       0.21978719 Ry

     total magnetization       =    -0.29 Bohr mag/cell
     absolute magnetization    =     1.27 Bohr mag/cell

     iteration # 52     ecut=    90.00 Ry     beta= 0.20
     CG style diagonalization
     c_bands:  1 eigenvalues not converged
     ethr =  2.89E-07,  avg # of iterations =  3.9

     total cpu time spent up to now is     1675.1 secs

     total energy              =   -2217.31719523 Ry
     estimated scf accuracy    <       0.07491956 Ry

     total magnetization       =    -0.32 Bohr mag/cell
     absolute magnetization    =     1.33 Bohr mag/cell

     iteration # 53     ecut=    90.00 Ry     beta= 0.20
     CG style diagonalization
     ethr =  2.89E-07,  avg # of iterations =  3.6

     total cpu time spent up to now is     1711.2 secs

     total energy              =   -2217.31791296 Ry
     estimated scf accuracy    <       0.01922656 Ry

     total magnetization       =    -0.32 Bohr mag/cell
     absolute magnetization    =     1.35 Bohr mag/cell

     iteration # 54     ecut=    90.00 Ry     beta= 0.20
     CG style diagonalization
     ethr =  2.89E-07,  avg # of iterations =  3.8

     total cpu time spent up to now is     1748.7 secs

     total energy              =   -2217.31812291 Ry
     estimated scf accuracy    <       0.02652064 Ry

     total magnetization       =    -0.33 Bohr mag/cell
     absolute magnetization    =     1.45 Bohr mag/cell

     iteration # 55     ecut=    90.00 Ry     beta= 0.20
     CG style diagonalization
     ethr =  2.89E-07,  avg # of iterations =  4.2

     total cpu time spent up to now is     1791.0 secs

     total energy              =   -2217.31733755 Ry
     estimated scf accuracy    <       0.10276403 Ry

     total magnetization       =    -0.36 Bohr mag/cell
     absolute magnetization    =     1.67 Bohr mag/cell

     iteration # 56     ecut=    90.00 Ry     beta= 0.20
     CG style diagonalization
     c_bands:  1 eigenvalues not converged
     ethr =  2.89E-07,  avg # of iterations =  4.3

     total cpu time spent up to now is     1833.5 secs

     total energy              =   -2217.31728474 Ry
     estimated scf accuracy    <       0.23533919 Ry

     total magnetization       =    -0.42 Bohr mag/cell
     absolute magnetization    =     1.82 Bohr mag/cell

     iteration # 57     ecut=    90.00 Ry     beta= 0.20
     CG style diagonalization
     ethr =  2.89E-07,  avg # of iterations =  3.9

     total cpu time spent up to now is     1872.8 secs

     total energy              =   -2217.31981350 Ry
     estimated scf accuracy    <       0.08736389 Ry

     total magnetization       =    -0.44 Bohr mag/cell
     absolute magnetization    =     1.89 Bohr mag/cell

     iteration # 58     ecut=    90.00 Ry     beta= 0.20
     CG style diagonalization
     c_bands:  1 eigenvalues not converged
     ethr =  2.89E-07,  avg # of iterations =  3.7

     total cpu time spent up to now is     1909.7 secs

     total energy              =   -2217.31997662 Ry
     estimated scf accuracy    <       0.06358989 Ry

     total magnetization       =    -0.46 Bohr mag/cell
     absolute magnetization    =     1.91 Bohr mag/cell

     iteration # 59     ecut=    90.00 Ry     beta= 0.20
     CG style diagonalization
     c_bands:  1 eigenvalues not converged
     ethr =  2.89E-07,  avg # of iterations =  4.4

     total cpu time spent up to now is     1953.7 secs

     total energy              =   -2217.31881514 Ry
     estimated scf accuracy    <       0.16913772 Ry

     total magnetization       =    -0.54 Bohr mag/cell
     absolute magnetization    =     2.12 Bohr mag/cell

     iteration # 60     ecut=    90.00 Ry     beta= 0.20
     CG style diagonalization
     c_bands:  1 eigenvalues not converged
     c_bands:  1 eigenvalues not converged
     c_bands:  1 eigenvalues not converged
     ethr =  2.89E-07,  avg # of iterations =  4.7

     total cpu time spent up to now is     2000.0 secs

     total energy              =   -2217.32181402 Ry
     estimated scf accuracy    <       0.12416175 Ry

     total magnetization       =    -0.54 Bohr mag/cell
     absolute magnetization    =     2.39 Bohr mag/cell

     iteration # 61     ecut=    90.00 Ry     beta= 0.20
     CG style diagonalization
     c_bands:  1 eigenvalues not converged
     ethr =  2.89E-07,  avg # of iterations =  4.5

     total cpu time spent up to now is     2044.8 secs

     total energy              =   -2217.32215146 Ry
     estimated scf accuracy    <       0.22046760 Ry

     total magnetization       =    -0.52 Bohr mag/cell
     absolute magnetization    =     2.49 Bohr mag/cell

     iteration # 62     ecut=    90.00 Ry     beta= 0.20
     CG style diagonalization
     ethr =  2.89E-07,  avg # of iterations =  4.1

     total cpu time spent up to now is     2085.9 secs

     total energy              =   -2217.32364407 Ry
     estimated scf accuracy    <       0.11631879 Ry

     total magnetization       =    -0.61 Bohr mag/cell
     absolute magnetization    =     2.66 Bohr mag/cell

     iteration # 63     ecut=    90.00 Ry     beta= 0.20
     CG style diagonalization
     ethr =  2.89E-07,  avg # of iterations =  4.5

     total cpu time spent up to now is     2130.7 secs

     total energy              =   -2217.31494768 Ry
     estimated scf accuracy    <       0.66612521 Ry

     total magnetization       =    -0.57 Bohr mag/cell
     absolute magnetization    =     2.67 Bohr mag/cell

     iteration # 64     ecut=    90.00 Ry     beta= 0.20
     CG style diagonalization
     c_bands:  1 eigenvalues not converged
     c_bands:  1 eigenvalues not converged
     c_bands:  1 eigenvalues not converged
     c_bands:  1 eigenvalues not converged
     c_bands:  1 eigenvalues not converged
     ethr =  2.89E-07,  avg # of iterations =  5.4

     total cpu time spent up to now is     2184.0 secs

     total energy              =   -2217.31336208 Ry
     estimated scf accuracy    <       0.94041972 Ry

     total magnetization       =    -0.85 Bohr mag/cell
     absolute magnetization    =     2.86 Bohr mag/cell

     iteration # 65     ecut=    90.00 Ry     beta= 0.20
     CG style diagonalization
     ethr =  2.89E-07,  avg # of iterations =  5.3

     total cpu time spent up to now is     2236.1 secs

     total energy              =   -2217.32780969 Ry
     estimated scf accuracy    <       0.25187832 Ry

     total magnetization       =    -0.94 Bohr mag/cell
     absolute magnetization    =     3.23 Bohr mag/cell

     iteration # 66     ecut=    90.00 Ry     beta= 0.20
     CG style diagonalization
     c_bands:  1 eigenvalues not converged
     ethr =  2.89E-07,  avg # of iterations =  4.6

     total cpu time spent up to now is     2281.3 secs

     total energy              =   -2217.33325278 Ry
     estimated scf accuracy    <       0.06020597 Ry

     total magnetization       =    -0.87 Bohr mag/cell
     absolute magnetization    =     3.44 Bohr mag/cell

     iteration # 67     ecut=    90.00 Ry     beta= 0.20
     CG style diagonalization
     c_bands:  1 eigenvalues not converged
     ethr =  2.89E-07,  avg # of iterations =  4.6

     total cpu time spent up to now is     2327.1 secs

     total energy              =   -2217.32462200 Ry
     estimated scf accuracy    <       0.40793647 Ry

     total magnetization       =    -0.82 Bohr mag/cell
     absolute magnetization    =     3.46 Bohr mag/cell

     iteration # 68     ecut=    90.00 Ry     beta= 0.20
     CG style diagonalization
     c_bands:  1 eigenvalues not converged
     c_bands:  1 eigenvalues not converged
     c_bands:  1 eigenvalues not converged
     c_bands:  1 eigenvalues not converged
     c_bands:  1 eigenvalues not converged
     ethr =  2.89E-07,  avg # of iterations =  5.4

     total cpu time spent up to now is     2380.4 secs

     total energy              =   -2217.31750312 Ry
     estimated scf accuracy    <       1.22204716 Ry

     total magnetization       =    -1.02 Bohr mag/cell
     absolute magnetization    =     3.87 Bohr mag/cell

     iteration # 69     ecut=    90.00 Ry     beta= 0.20
     CG style diagonalization
     c_bands:  1 eigenvalues not converged
     c_bands:  1 eigenvalues not converged
     c_bands:  1 eigenvalues not converged
     c_bands:  1 eigenvalues not converged
     c_bands:  1 eigenvalues not converged
     ethr =  2.89E-07,  avg # of iterations =  5.4

     total cpu time spent up to now is     2433.4 secs

     total energy              =   -2217.32970578 Ry
     estimated scf accuracy    <       0.89867094 Ry

     total magnetization       =    -0.89 Bohr mag/cell
     absolute magnetization    =     4.01 Bohr mag/cell

     iteration # 70     ecut=    90.00 Ry     beta= 0.20
     CG style diagonalization
     c_bands:  1 eigenvalues not converged
     ethr =  2.89E-07,  avg # of iterations =  4.9

     total cpu time spent up to now is     2482.1 secs

     total energy              =   -2217.34311736 Ry
     estimated scf accuracy    <       0.19740990 Ry

     total magnetization       =    -1.17 Bohr mag/cell
     absolute magnetization    =     4.25 Bohr mag/cell

     iteration # 71     ecut=    90.00 Ry     beta= 0.20
     CG style diagonalization
     ethr =  2.89E-07,  avg # of iterations =  4.5

     total cpu time spent up to now is     2526.7 secs

     total energy              =   -2217.34661144 Ry
     estimated scf accuracy    <       0.11763246 Ry

     total magnetization       =    -1.29 Bohr mag/cell
     absolute magnetization    =     4.41 Bohr mag/cell

     iteration # 72     ecut=    90.00 Ry     beta= 0.20
     CG style diagonalization
     c_bands:  1 eigenvalues not converged
     ethr =  2.89E-07,  avg # of iterations =  4.9

     total cpu time spent up to now is     2575.2 secs

     total energy              =   -2217.34346948 Ry
     estimated scf accuracy    <       0.30822462 Ry

     total magnetization       =    -1.22 Bohr mag/cell
     absolute magnetization    =     4.84 Bohr mag/cell

     iteration # 73     ecut=    90.00 Ry     beta= 0.20
     CG style diagonalization
     c_bands:  1 eigenvalues not converged
     c_bands:  1 eigenvalues not converged
     c_bands:  1 eigenvalues not converged
     c_bands:  1 eigenvalues not converged
     c_bands:  1 eigenvalues not converged
     c_bands:  1 eigenvalues not converged
     ethr =  2.89E-07,  avg # of iterations =  5.5

     total cpu time spent up to now is     2630.0 secs

     total energy              =   -2217.32814763 Ry
     estimated scf accuracy    <       1.44209053 Ry

     total magnetization       =    -0.97 Bohr mag/cell
     absolute magnetization    =     4.69 Bohr mag/cell

     iteration # 74     ecut=    90.00 Ry     beta= 0.20
     CG style diagonalization
     c_bands:  1 eigenvalues not converged
     ethr =  2.89E-07,  avg # of iterations =  5.4

     total cpu time spent up to now is     2683.2 secs

     total energy              =   -2217.35915638 Ry
     estimated scf accuracy    <       0.18415141 Ry

     total magnetization       =    -1.45 Bohr mag/cell
     absolute magnetization    =     5.27 Bohr mag/cell

     iteration # 75     ecut=    90.00 Ry     beta= 0.20
     CG style diagonalization
     ethr =  2.89E-07,  avg # of iterations =  4.2

     total cpu time spent up to now is     2725.4 secs

     total energy              =   -2217.35867362 Ry
     estimated scf accuracy    <       0.30433460 Ry

     total magnetization       =    -1.39 Bohr mag/cell
     absolute magnetization    =     5.23 Bohr mag/cell

     iteration # 76     ecut=    90.00 Ry     beta= 0.20
     CG style diagonalization
     ethr =  2.89E-07,  avg # of iterations =  4.8

     total cpu time spent up to now is     2772.8 secs

     total energy              =   -2217.36347687 Ry
     estimated scf accuracy    <       0.21211825 Ry

     total magnetization       =    -1.53 Bohr mag/cell
     absolute magnetization    =     5.45 Bohr mag/cell

     iteration # 77     ecut=    90.00 Ry     beta= 0.20
     CG style diagonalization
     c_bands:  1 eigenvalues not converged
     c_bands:  1 eigenvalues not converged
     c_bands:  1 eigenvalues not converged
     c_bands:  1 eigenvalues not converged
     c_bands:  1 eigenvalues not converged
     ethr =  2.89E-07,  avg # of iterations =  5.7

     total cpu time spent up to now is     2829.2 secs

     total energy              =   -2217.35050636 Ry
     estimated scf accuracy    <       1.07747867 Ry

     total magnetization       =    -2.18 Bohr mag/cell
     absolute magnetization    =     5.80 Bohr mag/cell

     iteration # 78     ecut=    90.00 Ry     beta= 0.20
     CG style diagonalization
     c_bands:  1 eigenvalues not converged
     c_bands:  1 eigenvalues not converged
     c_bands:  1 eigenvalues not converged
     ethr =  2.89E-07,  avg # of iterations =  5.3

     total cpu time spent up to now is     2881.8 secs

     total energy              =   -2217.37790700 Ry
     estimated scf accuracy    <       0.09761091 Ry

     total magnetization       =    -1.86 Bohr mag/cell
     absolute magnetization    =     6.13 Bohr mag/cell

     iteration # 79     ecut=    90.00 Ry     beta= 0.20
     CG style diagonalization
     c_bands:  1 eigenvalues not converged
     c_bands:  1 eigenvalues not converged
     c_bands:  1 eigenvalues not converged
     ethr =  2.89E-07,  avg # of iterations =  4.8

     total cpu time spent up to now is     2929.0 secs

     total energy              =   -2217.37626698 Ry
     estimated scf accuracy    <       0.41446810 Ry

     total magnetization       =    -1.78 Bohr mag/cell
     absolute magnetization    =     6.14 Bohr mag/cell

     iteration # 80     ecut=    90.00 Ry     beta= 0.20
     CG style diagonalization
     ethr =  2.89E-07,  avg # of iterations =  5.0

     total cpu time spent up to now is     2978.9 secs

     total energy              =   -2217.38182498 Ry
     estimated scf accuracy    <       0.39719073 Ry

     total magnetization       =    -2.12 Bohr mag/cell
     absolute magnetization    =     6.57 Bohr mag/cell

     iteration # 81     ecut=    90.00 Ry     beta= 0.20
     CG style diagonalization
     c_bands:  1 eigenvalues not converged
     ethr =  2.89E-07,  avg # of iterations =  4.8

     total cpu time spent up to now is     3026.4 secs

     total energy              =   -2217.38908254 Ry
     estimated scf accuracy    <       0.29145652 Ry

     total magnetization       =    -2.09 Bohr mag/cell
     absolute magnetization    =     6.56 Bohr mag/cell

     iteration # 82     ecut=    90.00 Ry     beta= 0.20
     CG style diagonalization
     c_bands:  1 eigenvalues not converged
     c_bands:  1 eigenvalues not converged
     ethr =  2.89E-07,  avg # of iterations =  4.9

     total cpu time spent up to now is     3075.2 secs

     total energy              =   -2217.39771617 Ry
     estimated scf accuracy    <       0.16882977 Ry

     total magnetization       =    -2.21 Bohr mag/cell
     absolute magnetization    =     6.95 Bohr mag/cell

     iteration # 83     ecut=    90.00 Ry     beta= 0.20
     CG style diagonalization
     ethr =  2.89E-07,  avg # of iterations =  4.7

     total cpu time spent up to now is     3121.7 secs

     total energy              =   -2217.40424302 Ry
     estimated scf accuracy    <       0.17169864 Ry

     total magnetization       =    -2.49 Bohr mag/cell
     absolute magnetization    =     7.23 Bohr mag/cell

     iteration # 84     ecut=    90.00 Ry     beta= 0.20
     CG style diagonalization
     c_bands:  1 eigenvalues not converged
     ethr =  2.89E-07,  avg # of iterations =  4.6

     total cpu time spent up to now is     3167.7 secs

     total energy              =   -2217.40929652 Ry
     estimated scf accuracy    <       0.15730292 Ry

     total magnetization       =    -2.51 Bohr mag/cell
     absolute magnetization    =     7.44 Bohr mag/cell

     iteration # 85     ecut=    90.00 Ry     beta= 0.20
     CG style diagonalization
     ethr =  2.89E-07,  avg # of iterations =  4.8

     total cpu time spent up to now is     3215.6 secs

     total energy              =   -2217.41265008 Ry
     estimated scf accuracy    <       0.29730318 Ry

     total magnetization       =    -2.58 Bohr mag/cell
     absolute magnetization    =     7.69 Bohr mag/cell

     iteration # 86     ecut=    90.00 Ry     beta= 0.20
     CG style diagonalization
     ethr =  2.89E-07,  avg # of iterations =  4.7

     total cpu time spent up to now is     3262.5 secs

     total energy              =   -2217.41810240 Ry
     estimated scf accuracy    <       0.20846496 Ry

     total magnetization       =    -2.83 Bohr mag/cell
     absolute magnetization    =     7.89 Bohr mag/cell

     iteration # 87     ecut=    90.00 Ry     beta= 0.20
     CG style diagonalization
     ethr =  2.89E-07,  avg # of iterations =  4.6

     total cpu time spent up to now is     3308.2 secs

     total energy              =   -2217.42344358 Ry
     estimated scf accuracy    <       0.19772181 Ry

     total magnetization       =    -2.86 Bohr mag/cell
     absolute magnetization    =     7.90 Bohr mag/cell

     iteration # 88     ecut=    90.00 Ry     beta= 0.20
     CG style diagonalization
     ethr =  2.89E-07,  avg # of iterations =  4.9

     total cpu time spent up to now is     3356.4 secs

     total energy              =   -2217.43392402 Ry
     estimated scf accuracy    <       0.12909449 Ry

     total magnetization       =    -2.92 Bohr mag/cell
     absolute magnetization    =     8.26 Bohr mag/cell

     iteration # 89     ecut=    90.00 Ry     beta= 0.20
     CG style diagonalization
     ethr =  2.89E-07,  avg # of iterations =  4.7

     total cpu time spent up to now is     3403.4 secs

     total energy              =   -2217.43965353 Ry
     estimated scf accuracy    <       0.16464238 Ry

     total magnetization       =    -3.25 Bohr mag/cell
     absolute magnetization    =     8.73 Bohr mag/cell

     iteration # 90     ecut=    90.00 Ry     beta= 0.20
     CG style diagonalization
     ethr =  2.89E-07,  avg # of iterations =  4.3

     total cpu time spent up to now is     3446.2 secs

     total energy              =   -2217.44643225 Ry
     estimated scf accuracy    <       0.08455187 Ry

     total magnetization       =    -3.28 Bohr mag/cell
     absolute magnetization    =     8.79 Bohr mag/cell

     iteration # 91     ecut=    90.00 Ry     beta= 0.20
     CG style diagonalization
     ethr =  2.89E-07,  avg # of iterations =  4.1

     total cpu time spent up to now is     3487.3 secs

     total energy              =   -2217.45280450 Ry
     estimated scf accuracy    <       0.10308164 Ry

     total magnetization       =    -3.43 Bohr mag/cell
     absolute magnetization    =     9.05 Bohr mag/cell

     iteration # 92     ecut=    90.00 Ry     beta= 0.20
     CG style diagonalization
     ethr =  2.89E-07,  avg # of iterations =  4.3

     total cpu time spent up to now is     3529.8 secs

     total energy              =   -2217.45432802 Ry
     estimated scf accuracy    <       0.14167295 Ry

     total magnetization       =    -3.56 Bohr mag/cell
     absolute magnetization    =     9.19 Bohr mag/cell

     iteration # 93     ecut=    90.00 Ry     beta= 0.20
     CG style diagonalization
     ethr =  2.89E-07,  avg # of iterations =  4.5

     total cpu time spent up to now is     3574.4 secs

     total energy              =   -2217.46252554 Ry
     estimated scf accuracy    <       0.15349943 Ry

     total magnetization       =    -3.71 Bohr mag/cell
     absolute magnetization    =     9.34 Bohr mag/cell

     iteration # 94     ecut=    90.00 Ry     beta= 0.20
     CG style diagonalization
     ethr =  2.89E-07,  avg # of iterations =  4.6

     total cpu time spent up to now is     3619.9 secs

     total energy              =   -2217.46891998 Ry
     estimated scf accuracy    <       0.09522463 Ry

     total magnetization       =    -3.80 Bohr mag/cell
     absolute magnetization    =     9.72 Bohr mag/cell

     iteration # 95     ecut=    90.00 Ry     beta= 0.20
     CG style diagonalization
     ethr =  2.89E-07,  avg # of iterations =  4.0

     total cpu time spent up to now is     3660.2 secs

     total energy              =   -2217.48219121 Ry
     estimated scf accuracy    <       0.06064835 Ry

     total magnetization       =    -3.95 Bohr mag/cell
     absolute magnetization    =     9.82 Bohr mag/cell

     iteration # 96     ecut=    90.00 Ry     beta= 0.20
     CG style diagonalization
     ethr =  2.89E-07,  avg # of iterations =  4.0

     total cpu time spent up to now is     3699.6 secs

     total energy              =   -2217.48144901 Ry
     estimated scf accuracy    <       0.08189120 Ry

     total magnetization       =    -4.22 Bohr mag/cell
     absolute magnetization    =    10.39 Bohr mag/cell

     iteration # 97     ecut=    90.00 Ry     beta= 0.20
     CG style diagonalization
     ethr =  2.89E-07,  avg # of iterations =  3.5

     total cpu time spent up to now is     3735.1 secs

     total energy              =   -2217.49051833 Ry
     estimated scf accuracy    <       0.05780408 Ry

     total magnetization       =    -4.16 Bohr mag/cell
     absolute magnetization    =    10.23 Bohr mag/cell

     iteration # 98     ecut=    90.00 Ry     beta= 0.20
     CG style diagonalization
     ethr =  2.89E-07,  avg # of iterations =  3.9

     total cpu time spent up to now is     3774.1 secs

     total energy              =   -2217.50140745 Ry
     estimated scf accuracy    <       0.06515615 Ry

     total magnetization       =    -4.40 Bohr mag/cell
     absolute magnetization    =    10.61 Bohr mag/cell

     iteration # 99     ecut=    90.00 Ry     beta= 0.20
     CG style diagonalization
     ethr =  2.89E-07,  avg # of iterations =  4.1

     total cpu time spent up to now is     3814.9 secs

     total energy              =   -2217.50386729 Ry
     estimated scf accuracy    <       0.08296003 Ry

     total magnetization       =    -4.66 Bohr mag/cell
     absolute magnetization    =    11.04 Bohr mag/cell

     iteration #100     ecut=    90.00 Ry     beta= 0.20
     CG style diagonalization
     ethr =  2.89E-07,  avg # of iterations =  3.9

     total cpu time spent up to now is     3853.4 secs

     total energy              =   -2217.51172627 Ry
     estimated scf accuracy    <       0.06486624 Ry

     total magnetization       =    -4.66 Bohr mag/cell
     absolute magnetization    =    11.04 Bohr mag/cell

     iteration #101     ecut=    90.00 Ry     beta= 0.20
     CG style diagonalization
     ethr =  2.89E-07,  avg # of iterations =  4.1

     total cpu time spent up to now is     3894.1 secs

     total energy              =   -2217.50753690 Ry
     estimated scf accuracy    <       0.06985779 Ry

     total magnetization       =    -4.84 Bohr mag/cell
     absolute magnetization    =    11.38 Bohr mag/cell

     iteration #102     ecut=    90.00 Ry     beta= 0.20
     CG style diagonalization
     ethr =  2.89E-07,  avg # of iterations =  4.3

     total cpu time spent up to now is     3936.8 secs

     total energy              =   -2217.52438989 Ry
     estimated scf accuracy    <       0.07290472 Ry

     total magnetization       =    -4.85 Bohr mag/cell
     absolute magnetization    =    11.09 Bohr mag/cell

     iteration #103     ecut=    90.00 Ry     beta= 0.20
     CG style diagonalization
     ethr =  2.89E-07,  avg # of iterations =  4.4

     total cpu time spent up to now is     3980.0 secs

     total energy              =   -2217.52844401 Ry
     estimated scf accuracy    <       0.06971143 Ry

     total magnetization       =    -5.24 Bohr mag/cell
     absolute magnetization    =    11.96 Bohr mag/cell

     iteration #104     ecut=    90.00 Ry     beta= 0.20
     CG style diagonalization
     ethr =  2.89E-07,  avg # of iterations =  4.1

     total cpu time spent up to now is     4020.8 secs

     total energy              =   -2217.52511387 Ry
     estimated scf accuracy    <       0.05657475 Ry

     total magnetization       =    -5.25 Bohr mag/cell
     absolute magnetization    =    11.95 Bohr mag/cell

     iteration #105     ecut=    90.00 Ry     beta= 0.20
     CG style diagonalization
     ethr =  2.89E-07,  avg # of iterations =  4.2

     total cpu time spent up to now is     4062.3 secs

     total energy              =   -2217.53706090 Ry
     estimated scf accuracy    <       0.05844854 Ry

     total magnetization       =    -5.10 Bohr mag/cell
     absolute magnetization    =    11.74 Bohr mag/cell

     iteration #106     ecut=    90.00 Ry     beta= 0.20
     CG style diagonalization
     ethr =  2.89E-07,  avg # of iterations =  4.1

     total cpu time spent up to now is     4103.3 secs

     total energy              =   -2217.53620027 Ry
     estimated scf accuracy    <       0.05490360 Ry

     total magnetization       =    -5.52 Bohr mag/cell
     absolute magnetization    =    12.31 Bohr mag/cell

     iteration #107     ecut=    90.00 Ry     beta= 0.20
     CG style diagonalization
     ethr =  2.89E-07,  avg # of iterations =  4.0

     total cpu time spent up to now is     4143.0 secs

     total energy              =   -2217.54736976 Ry
     estimated scf accuracy    <       0.04126841 Ry

     total magnetization       =    -5.46 Bohr mag/cell
     absolute magnetization    =    12.19 Bohr mag/cell

     iteration #108     ecut=    90.00 Ry     beta= 0.20
     CG style diagonalization
     ethr =  2.89E-07,  avg # of iterations =  4.0

     total cpu time spent up to now is     4182.8 secs

     total energy              =   -2217.54775966 Ry
     estimated scf accuracy    <       0.03970398 Ry

     total magnetization       =    -5.73 Bohr mag/cell
     absolute magnetization    =    12.68 Bohr mag/cell

     iteration #109     ecut=    90.00 Ry     beta= 0.20
     CG style diagonalization
     ethr =  2.89E-07,  avg # of iterations =  4.0

     total cpu time spent up to now is     4223.2 secs

     total energy              =   -2217.55238546 Ry
     estimated scf accuracy    <       0.04233007 Ry

     total magnetization       =    -5.77 Bohr mag/cell
     absolute magnetization    =    12.55 Bohr mag/cell

     iteration #110     ecut=    90.00 Ry     beta= 0.20
     CG style diagonalization
     ethr =  2.89E-07,  avg # of iterations =  4.2

     total cpu time spent up to now is     4264.5 secs

     total energy              =   -2217.56237776 Ry
     estimated scf accuracy    <       0.03604033 Ry

     total magnetization       =    -5.88 Bohr mag/cell
     absolute magnetization    =    12.82 Bohr mag/cell

     iteration #111     ecut=    90.00 Ry     beta= 0.20
     CG style diagonalization
     ethr =  2.89E-07,  avg # of iterations =  4.4

     total cpu time spent up to now is     4307.7 secs

     total energy              =   -2217.56451185 Ry
     estimated scf accuracy    <       0.04523966 Ry

     total magnetization       =    -6.18 Bohr mag/cell
     absolute magnetization    =    13.23 Bohr mag/cell

     iteration #112     ecut=    90.00 Ry     beta= 0.20
     CG style diagonalization
     c_bands:  1 eigenvalues not converged
     ethr =  2.89E-07,  avg # of iterations =  4.2

     total cpu time spent up to now is     4350.0 secs

     total energy              =   -2217.56546134 Ry
     estimated scf accuracy    <       0.04791588 Ry

     total magnetization       =    -6.22 Bohr mag/cell
     absolute magnetization    =    13.31 Bohr mag/cell

     iteration #113     ecut=    90.00 Ry     beta= 0.20
     CG style diagonalization
     ethr =  2.89E-07,  avg # of iterations =  4.4

     total cpu time spent up to now is     4393.5 secs

     total energy              =   -2217.57057061 Ry
     estimated scf accuracy    <       0.03433693 Ry

     total magnetization       =    -6.26 Bohr mag/cell
     absolute magnetization    =    13.37 Bohr mag/cell

     iteration #114     ecut=    90.00 Ry     beta= 0.20
     CG style diagonalization
     ethr =  2.89E-07,  avg # of iterations =  4.1

     total cpu time spent up to now is     4434.6 secs

     total energy              =   -2217.57532444 Ry
     estimated scf accuracy    <       0.02056234 Ry

     total magnetization       =    -6.43 Bohr mag/cell
     absolute magnetization    =    13.49 Bohr mag/cell

     iteration #115     ecut=    90.00 Ry     beta= 0.20
     CG style diagonalization
     ethr =  2.89E-07,  avg # of iterations =  4.0

     total cpu time spent up to now is     4474.5 secs

     total energy              =   -2217.57590041 Ry
     estimated scf accuracy    <       0.01967559 Ry

     total magnetization       =    -6.53 Bohr mag/cell
     absolute magnetization    =    13.75 Bohr mag/cell

     iteration #116     ecut=    90.00 Ry     beta= 0.20
     CG style diagonalization
     ethr =  2.89E-07,  avg # of iterations =  4.1

     total cpu time spent up to now is     4515.1 secs

     total energy              =   -2217.57987008 Ry
     estimated scf accuracy    <       0.02122130 Ry

     total magnetization       =    -6.57 Bohr mag/cell
     absolute magnetization    =    13.77 Bohr mag/cell

     iteration #117     ecut=    90.00 Ry     beta= 0.20
     CG style diagonalization
     ethr =  2.89E-07,  avg # of iterations =  4.0

     total cpu time spent up to now is     4555.0 secs

     total energy              =   -2217.58097462 Ry
     estimated scf accuracy    <       0.01952401 Ry

     total magnetization       =    -6.71 Bohr mag/cell
     absolute magnetization    =    13.94 Bohr mag/cell

     iteration #118     ecut=    90.00 Ry     beta= 0.20
     CG style diagonalization
     ethr =  2.89E-07,  avg # of iterations =  3.8

     total cpu time spent up to now is     4592.8 secs

     total energy              =   -2217.58206711 Ry
     estimated scf accuracy    <       0.01531330 Ry

     total magnetization       =    -6.72 Bohr mag/cell
     absolute magnetization    =    13.97 Bohr mag/cell

     iteration #119     ecut=    90.00 Ry     beta= 0.20
     CG style diagonalization
     ethr =  2.89E-07,  avg # of iterations =  4.0

     negative rho (up, down):  0.000E+00 6.356E-08

     total cpu time spent up to now is     4632.3 secs

     total energy              =   -2217.58483375 Ry
     estimated scf accuracy    <       0.01419910 Ry

     total magnetization       =    -6.78 Bohr mag/cell
     absolute magnetization    =    14.04 Bohr mag/cell

     iteration #120     ecut=    90.00 Ry     beta= 0.20
     CG style diagonalization
     ethr =  2.89E-07,  avg # of iterations =  3.8

     negative rho (up, down):  0.000E+00 2.363E-06

     total cpu time spent up to now is     4670.3 secs

     total energy              =   -2217.58645671 Ry
     estimated scf accuracy    <       0.00939270 Ry

     total magnetization       =    -6.90 Bohr mag/cell
     absolute magnetization    =    14.23 Bohr mag/cell

     iteration #121     ecut=    90.00 Ry     beta= 0.20
     CG style diagonalization
     ethr =  2.89E-07,  avg # of iterations =  3.7

     negative rho (up, down):  0.000E+00 3.036E-06

     total cpu time spent up to now is     4707.5 secs

     total energy              =   -2217.58702219 Ry
     estimated scf accuracy    <       0.00807303 Ry

     total magnetization       =    -6.96 Bohr mag/cell
     absolute magnetization    =    14.27 Bohr mag/cell

     iteration #122     ecut=    90.00 Ry     beta= 0.20
     CG style diagonalization
     ethr =  2.89E-07,  avg # of iterations =  3.8

     negative rho (up, down):  0.000E+00 3.852E-06

     total cpu time spent up to now is     4745.1 secs

     total energy              =   -2217.58760042 Ry
     estimated scf accuracy    <       0.00983733 Ry

     total magnetization       =    -6.99 Bohr mag/cell
     absolute magnetization    =    14.32 Bohr mag/cell

     iteration #123     ecut=    90.00 Ry     beta= 0.20
     CG style diagonalization
     ethr =  2.89E-07,  avg # of iterations =  3.7

     negative rho (up, down):  0.000E+00 5.352E-06

     total cpu time spent up to now is     4781.8 secs

     total energy              =   -2217.58873185 Ry
     estimated scf accuracy    <       0.00629940 Ry

     total magnetization       =    -7.01 Bohr mag/cell
     absolute magnetization    =    14.36 Bohr mag/cell

     iteration #124     ecut=    90.00 Ry     beta= 0.20
     CG style diagonalization
     ethr =  2.89E-07,  avg # of iterations =  3.4

     negative rho (up, down):  0.000E+00 6.167E-06

     total cpu time spent up to now is     4816.3 secs

     total energy              =   -2217.58941145 Ry
     estimated scf accuracy    <       0.00524428 Ry

     total magnetization       =    -7.07 Bohr mag/cell
     absolute magnetization    =    14.44 Bohr mag/cell

     iteration #125     ecut=    90.00 Ry     beta= 0.20
     CG style diagonalization
     ethr =  2.89E-07,  avg # of iterations =  3.5

     negative rho (up, down):  0.000E+00 6.608E-06

     total cpu time spent up to now is     4850.8 secs

     total energy              =   -2217.58960458 Ry
     estimated scf accuracy    <       0.00481207 Ry

     total magnetization       =    -7.11 Bohr mag/cell
     absolute magnetization    =    14.49 Bohr mag/cell

     iteration #126     ecut=    90.00 Ry     beta= 0.20
     CG style diagonalization
     ethr =  2.89E-07,  avg # of iterations =  3.4

     negative rho (up, down):  0.000E+00 7.237E-06

     total cpu time spent up to now is     4884.9 secs

     total energy              =   -2217.59017943 Ry
     estimated scf accuracy    <       0.00303403 Ry

     total magnetization       =    -7.12 Bohr mag/cell
     absolute magnetization    =    14.48 Bohr mag/cell

     iteration #127     ecut=    90.00 Ry     beta= 0.20
     CG style diagonalization
     ethr =  2.89E-07,  avg # of iterations =  3.3

     negative rho (up, down):  0.000E+00 8.572E-06

     total cpu time spent up to now is     4918.3 secs

     total energy              =   -2217.59089524 Ry
     estimated scf accuracy    <       0.00239881 Ry

     total magnetization       =    -7.15 Bohr mag/cell
     absolute magnetization    =    14.54 Bohr mag/cell

     iteration #128     ecut=    90.00 Ry     beta= 0.20
     CG style diagonalization
     ethr =  2.89E-07,  avg # of iterations =  3.3

     negative rho (up, down):  0.000E+00 8.858E-06

     total cpu time spent up to now is     4951.3 secs

     total energy              =   -2217.59105296 Ry
     estimated scf accuracy    <       0.00274790 Ry

     total magnetization       =    -7.20 Bohr mag/cell
     absolute magnetization    =    14.61 Bohr mag/cell

     iteration #129     ecut=    90.00 Ry     beta= 0.20
     CG style diagonalization
     ethr =  2.89E-07,  avg # of iterations =  3.3

     negative rho (up, down):  0.000E+00 9.272E-06

     total cpu time spent up to now is     4984.7 secs

     total energy              =   -2217.59127773 Ry
     estimated scf accuracy    <       0.00256348 Ry

     total magnetization       =    -7.22 Bohr mag/cell
     absolute magnetization    =    14.62 Bohr mag/cell

     iteration #130     ecut=    90.00 Ry     beta= 0.20
     CG style diagonalization
     ethr =  2.89E-07,  avg # of iterations =  3.2

     negative rho (up, down):  0.000E+00 1.043E-05

     total cpu time spent up to now is     5017.1 secs

     total energy              =   -2217.59175716 Ry
     estimated scf accuracy    <       0.00211002 Ry

     total magnetization       =    -7.23 Bohr mag/cell
     absolute magnetization    =    14.64 Bohr mag/cell

     iteration #131     ecut=    90.00 Ry     beta= 0.20
     CG style diagonalization
     ethr =  2.89E-07,  avg # of iterations =  3.3

     negative rho (up, down):  0.000E+00 1.056E-05

     total cpu time spent up to now is     5050.1 secs

     total energy              =   -2217.59190503 Ry
     estimated scf accuracy    <       0.00164799 Ry

     total magnetization       =    -7.28 Bohr mag/cell
     absolute magnetization    =    14.70 Bohr mag/cell

     iteration #132     ecut=    90.00 Ry     beta= 0.20
     CG style diagonalization
     ethr =  2.89E-07,  avg # of iterations =  3.3

     negative rho (up, down):  0.000E+00 1.074E-05

     total cpu time spent up to now is     5082.7 secs

     total energy              =   -2217.59201081 Ry
     estimated scf accuracy    <       0.00150105 Ry

     total magnetization       =    -7.30 Bohr mag/cell
     absolute magnetization    =    14.73 Bohr mag/cell

     iteration #133     ecut=    90.00 Ry     beta= 0.20
     CG style diagonalization
     ethr =  2.89E-07,  avg # of iterations =  3.2

     negative rho (up, down):  0.000E+00 1.143E-05

     total cpu time spent up to now is     5114.6 secs

     total energy              =   -2217.59228119 Ry
     estimated scf accuracy    <       0.00092264 Ry

     total magnetization       =    -7.30 Bohr mag/cell
     absolute magnetization    =    14.73 Bohr mag/cell

     iteration #134     ecut=    90.00 Ry     beta= 0.20
     CG style diagonalization
     ethr =  2.89E-07,  avg # of iterations =  3.1

     negative rho (up, down):  0.000E+00 1.136E-05

     total cpu time spent up to now is     5145.4 secs

     total energy              =   -2217.59228183 Ry
     estimated scf accuracy    <       0.00072001 Ry

     total magnetization       =    -7.33 Bohr mag/cell
     absolute magnetization    =    14.77 Bohr mag/cell

     iteration #135     ecut=    90.00 Ry     beta= 0.20
     CG style diagonalization
     ethr =  2.89E-07,  avg # of iterations =  3.0

     negative rho (up, down):  0.000E+00 1.161E-05

     total cpu time spent up to now is     5175.8 secs

     total energy              =   -2217.59238807 Ry
     estimated scf accuracy    <       0.00062755 Ry

     total magnetization       =    -7.33 Bohr mag/cell
     absolute magnetization    =    14.77 Bohr mag/cell

     iteration #136     ecut=    90.00 Ry     beta= 0.20
     CG style diagonalization
     ethr =  2.89E-07,  avg # of iterations =  3.0

     negative rho (up, down):  0.000E+00 1.202E-05

     total cpu time spent up to now is     5205.9 secs

     total energy              =   -2217.59252295 Ry
     estimated scf accuracy    <       0.00052354 Ry

     total magnetization       =    -7.34 Bohr mag/cell
     absolute magnetization    =    14.79 Bohr mag/cell

     iteration #137     ecut=    90.00 Ry     beta= 0.20
     CG style diagonalization
     ethr =  2.89E-07,  avg # of iterations =  3.0

     negative rho (up, down):  0.000E+00 1.217E-05

     total cpu time spent up to now is     5236.0 secs

     total energy              =   -2217.59256284 Ry
     estimated scf accuracy    <       0.00033003 Ry

     total magnetization       =    -7.37 Bohr mag/cell
     absolute magnetization    =    14.81 Bohr mag/cell

     iteration #138     ecut=    90.00 Ry     beta= 0.20
     CG style diagonalization
     ethr =  2.50E-07,  avg # of iterations =  3.0

     negative rho (up, down):  0.000E+00 1.238E-05

     total cpu time spent up to now is     5266.1 secs

     total energy              =   -2217.59261767 Ry
     estimated scf accuracy    <       0.00036205 Ry

     total magnetization       =    -7.37 Bohr mag/cell
     absolute magnetization    =    14.82 Bohr mag/cell

     iteration #139     ecut=    90.00 Ry     beta= 0.20
     CG style diagonalization
     ethr =  2.50E-07,  avg # of iterations =  3.0

     negative rho (up, down):  0.000E+00 1.258E-05

     total cpu time spent up to now is     5296.3 secs

     total energy              =   -2217.59267595 Ry
     estimated scf accuracy    <       0.00025145 Ry

     total magnetization       =    -7.39 Bohr mag/cell
     absolute magnetization    =    14.84 Bohr mag/cell

     iteration #140     ecut=    90.00 Ry     beta= 0.20
     CG style diagonalization
     ethr =  1.90E-07,  avg # of iterations =  3.0

     negative rho (up, down):  0.000E+00 1.269E-05

     total cpu time spent up to now is     5326.5 secs

     total energy              =   -2217.59270682 Ry
     estimated scf accuracy    <       0.00015948 Ry

     total magnetization       =    -7.40 Bohr mag/cell
     absolute magnetization    =    14.85 Bohr mag/cell

     iteration #141     ecut=    90.00 Ry     beta= 0.20
     CG style diagonalization
     ethr =  1.21E-07,  avg # of iterations =  3.0

     negative rho (up, down):  0.000E+00 1.276E-05

     total cpu time spent up to now is     5356.8 secs

     total energy              =   -2217.59272182 Ry
     estimated scf accuracy    <       0.00017213 Ry

     total magnetization       =    -7.41 Bohr mag/cell
     absolute magnetization    =    14.86 Bohr mag/cell

     iteration #142     ecut=    90.00 Ry     beta= 0.20
     CG style diagonalization
     ethr =  1.21E-07,  avg # of iterations =  3.0

     negative rho (up, down):  0.000E+00 1.278E-05

     total cpu time spent up to now is     5387.0 secs

     total energy              =   -2217.59273084 Ry
     estimated scf accuracy    <       0.00014629 Ry

     total magnetization       =    -7.41 Bohr mag/cell
     absolute magnetization    =    14.87 Bohr mag/cell

     iteration #143     ecut=    90.00 Ry     beta= 0.20
     CG style diagonalization
     ethr =  1.11E-07,  avg # of iterations =  3.0

     negative rho (up, down):  0.000E+00 1.282E-05

     total cpu time spent up to now is     5417.1 secs

     total energy              =   -2217.59274638 Ry
     estimated scf accuracy    <       0.00005709 Ry

     total magnetization       =    -7.41 Bohr mag/cell
     absolute magnetization    =    14.87 Bohr mag/cell

     iteration #144     ecut=    90.00 Ry     beta= 0.20
     CG style diagonalization
     ethr =  4.32E-08,  avg # of iterations =  3.0

     negative rho (up, down):  0.000E+00 1.287E-05

     total cpu time spent up to now is     5447.2 secs

     total energy              =   -2217.59275755 Ry
     estimated scf accuracy    <       0.00005722 Ry

     total magnetization       =    -7.42 Bohr mag/cell
     absolute magnetization    =    14.88 Bohr mag/cell

     iteration #145     ecut=    90.00 Ry     beta= 0.20
     CG style diagonalization
     ethr =  4.32E-08,  avg # of iterations =  3.0

     negative rho (up, down):  0.000E+00 1.288E-05

     total cpu time spent up to now is     5477.3 secs

     total energy              =   -2217.59276092 Ry
     estimated scf accuracy    <       0.00003843 Ry

     total magnetization       =    -7.42 Bohr mag/cell
     absolute magnetization    =    14.88 Bohr mag/cell

     iteration #146     ecut=    90.00 Ry     beta= 0.20
     CG style diagonalization
     ethr =  2.91E-08,  avg # of iterations =  3.0

     negative rho (up, down):  0.000E+00 1.293E-05

     total cpu time spent up to now is     5507.4 secs

     total energy              =   -2217.59276984 Ry
     estimated scf accuracy    <       0.00002943 Ry

     total magnetization       =    -7.42 Bohr mag/cell
     absolute magnetization    =    14.88 Bohr mag/cell

     iteration #147     ecut=    90.00 Ry     beta= 0.20
     CG style diagonalization
     ethr =  2.23E-08,  avg # of iterations =  3.0

     negative rho (up, down):  0.000E+00 1.302E-05

     total cpu time spent up to now is     5537.6 secs

     total energy              =   -2217.59278049 Ry
     estimated scf accuracy    <       0.00002907 Ry

     total magnetization       =    -7.42 Bohr mag/cell
     absolute magnetization    =    14.89 Bohr mag/cell

     iteration #148     ecut=    90.00 Ry     beta= 0.20
     CG style diagonalization
     ethr =  2.20E-08,  avg # of iterations =  3.0

     negative rho (up, down):  0.000E+00 1.301E-05

     total cpu time spent up to now is     5568.1 secs

     total energy              =   -2217.59278129 Ry
     estimated scf accuracy    <       0.00002808 Ry

     total magnetization       =    -7.43 Bohr mag/cell
     absolute magnetization    =    14.90 Bohr mag/cell

     iteration #149     ecut=    90.00 Ry     beta= 0.20
     CG style diagonalization
     ethr =  2.13E-08,  avg # of iterations =  3.0

     negative rho (up, down):  9.617E-09 1.307E-05

     total cpu time spent up to now is     5598.3 secs

     total energy              =   -2217.59278754 Ry
     estimated scf accuracy    <       0.00002442 Ry

     total magnetization       =    -7.43 Bohr mag/cell
     absolute magnetization    =    14.90 Bohr mag/cell

     iteration #150     ecut=    90.00 Ry     beta= 0.20
     CG style diagonalization
     ethr =  1.85E-08,  avg # of iterations =  3.0

     negative rho (up, down):  1.478E-07 1.311E-05

     total cpu time spent up to now is     5628.8 secs

     total energy              =   -2217.59279102 Ry
     estimated scf accuracy    <       0.00002235 Ry

     total magnetization       =    -7.44 Bohr mag/cell
     absolute magnetization    =    14.91 Bohr mag/cell

     iteration #151     ecut=    90.00 Ry     beta= 0.20
     CG style diagonalization
     ethr =  1.69E-08,  avg # of iterations =  3.0

     negative rho (up, down):  1.250E-07 1.309E-05

     total cpu time spent up to now is     5659.1 secs

     total energy              =   -2217.59279159 Ry
     estimated scf accuracy    <       0.00000834 Ry

     total magnetization       =    -7.44 Bohr mag/cell
     absolute magnetization    =    14.91 Bohr mag/cell

     iteration #152     ecut=    90.00 Ry     beta= 0.20
     CG style diagonalization
     ethr =  6.32E-09,  avg # of iterations =  3.0

     negative rho (up, down):  2.398E-07 1.311E-05

     total cpu time spent up to now is     5689.6 secs

     total energy              =   -2217.59279332 Ry
     estimated scf accuracy    <       0.00000804 Ry

     total magnetization       =    -7.44 Bohr mag/cell
     absolute magnetization    =    14.91 Bohr mag/cell

     iteration #153     ecut=    90.00 Ry     beta= 0.20
[...]
     estimated scf accuracy    <       0.07618280 Ry

     total magnetization       =    -8.38 Bohr mag/cell
     absolute magnetization    =    16.11 Bohr mag/cell

     iteration #  6     ecut=    90.00 Ry     beta= 0.20
     CG style diagonalization
     ethr =  5.77E-05,  avg # of iterations =  3.0

     negative rho (up, down):  5.118E-05 0.000E+00

     total cpu time spent up to now is   100171.3 secs

     total energy              =   -2217.74250563 Ry
     estimated scf accuracy    <       0.05621217 Ry

     total magnetization       =    -8.40 Bohr mag/cell
     absolute magnetization    =    16.15 Bohr mag/cell

     iteration #  7     ecut=    90.00 Ry     beta= 0.20
     CG style diagonalization
     ethr =  4.26E-05,  avg # of iterations =  3.2

     negative rho (up, down):  5.014E-05 0.000E+00

     total cpu time spent up to now is   100202.4 secs

     total energy              =   -2217.74669290 Ry
     estimated scf accuracy    <       0.00527444 Ry

     total magnetization       =    -8.47 Bohr mag/cell
     absolute magnetization    =    16.32 Bohr mag/cell

     iteration #  8     ecut=    90.00 Ry     beta= 0.20
     CG style diagonalization
     ethr =  4.00E-06,  avg # of iterations =  3.4

     negative rho (up, down):  4.991E-05 0.000E+00

     total cpu time spent up to now is   100236.1 secs

     total energy              =   -2217.74750887 Ry
     estimated scf accuracy    <       0.00624466 Ry

     total magnetization       =    -8.47 Bohr mag/cell
     absolute magnetization    =    16.34 Bohr mag/cell

     iteration #  9     ecut=    90.00 Ry     beta= 0.20
     CG style diagonalization
     ethr =  4.00E-06,  avg # of iterations =  3.1

     negative rho (up, down):  4.961E-05 0.000E+00

     total cpu time spent up to now is   100266.8 secs

     total energy              =   -2217.74795678 Ry
     estimated scf accuracy    <       0.00019006 Ry

     total magnetization       =    -8.46 Bohr mag/cell
     absolute magnetization    =    16.30 Bohr mag/cell

     iteration # 10     ecut=    90.00 Ry     beta= 0.20
     CG style diagonalization
     ethr =  1.44E-07,  avg # of iterations =  3.4

     negative rho (up, down):  4.926E-05 0.000E+00

     total cpu time spent up to now is   100300.8 secs

     total energy              =   -2217.74798772 Ry
     estimated scf accuracy    <       0.00006121 Ry

     total magnetization       =    -8.46 Bohr mag/cell
     absolute magnetization    =    16.30 Bohr mag/cell

     iteration # 11     ecut=    90.00 Ry     beta= 0.20
     CG style diagonalization
     ethr =  4.64E-08,  avg # of iterations =  3.3

     negative rho (up, down):  4.866E-05 0.000E+00

     total cpu time spent up to now is   100333.5 secs

     total energy              =   -2217.74799641 Ry
     estimated scf accuracy    <       0.00001469 Ry

     total magnetization       =    -8.46 Bohr mag/cell
     absolute magnetization    =    16.30 Bohr mag/cell

     iteration # 12     ecut=    90.00 Ry     beta= 0.20
     CG style diagonalization
     ethr =  1.11E-08,  avg # of iterations =  3.3

     negative rho (up, down):  4.849E-05 0.000E+00

     total cpu time spent up to now is   100366.0 secs

     total energy              =   -2217.74799790 Ry
     estimated scf accuracy    <       0.00001320 Ry

     total magnetization       =    -8.46 Bohr mag/cell
     absolute magnetization    =    16.30 Bohr mag/cell

     iteration # 13     ecut=    90.00 Ry     beta= 0.20
     CG style diagonalization
     ethr =  1.00E-08,  avg # of iterations =  3.0

     negative rho (up, down):  4.805E-05 0.000E+00

     total cpu time spent up to now is   100395.8 secs

     total energy              =   -2217.74799958 Ry
     estimated scf accuracy    <       0.00001206 Ry

     total magnetization       =    -8.46 Bohr mag/cell
     absolute magnetization    =    16.30 Bohr mag/cell

     iteration # 14     ecut=    90.00 Ry     beta= 0.20
     CG style diagonalization
     ethr =  9.13E-09,  avg # of iterations =  3.0

     negative rho (up, down):  4.755E-05 0.000E+00

     total cpu time spent up to now is   100425.5 secs

     total energy              =   -2217.74800099 Ry
     estimated scf accuracy    <       0.00000573 Ry

     total magnetization       =    -8.46 Bohr mag/cell
     absolute magnetization    =    16.30 Bohr mag/cell

     iteration # 15     ecut=    90.00 Ry     beta= 0.20
     CG style diagonalization
     ethr =  4.34E-09,  avg # of iterations =  3.0

     negative rho (up, down):  4.659E-05 0.000E+00

     total cpu time spent up to now is   100455.2 secs

     total energy              =   -2217.74800242 Ry
     estimated scf accuracy    <       0.00000592 Ry

     total magnetization       =    -8.46 Bohr mag/cell
     absolute magnetization    =    16.30 Bohr mag/cell

     iteration # 16     ecut=    90.00 Ry     beta= 0.20
     CG style diagonalization
     ethr =  4.34E-09,  avg # of iterations =  3.1

     negative rho (up, down):  4.644E-05 0.000E+00

     total cpu time spent up to now is   100485.4 secs

     total energy              =   -2217.74800310 Ry
     estimated scf accuracy    <       0.00000119 Ry

     total magnetization       =    -8.46 Bohr mag/cell
     absolute magnetization    =    16.29 Bohr mag/cell

     iteration # 17     ecut=    90.00 Ry     beta= 0.20
     CG style diagonalization
     ethr =  9.02E-10,  avg # of iterations =  3.2

     negative rho (up, down):  4.624E-05 0.000E+00

     total cpu time spent up to now is   100517.0 secs

     total energy              =   -2217.74800335 Ry
     estimated scf accuracy    <       0.00000056 Ry

     total magnetization       =    -8.46 Bohr mag/cell
     absolute magnetization    =    16.29 Bohr mag/cell

     iteration # 18     ecut=    90.00 Ry     beta= 0.20
     CG style diagonalization
     ethr =  4.26E-10,  avg # of iterations =  3.2

     negative rho (up, down):  4.611E-05 0.000E+00

     total cpu time spent up to now is   100548.8 secs

     total energy              =   -2217.74800344 Ry
     estimated scf accuracy    <       0.00000038 Ry

     total magnetization       =    -8.46 Bohr mag/cell
     absolute magnetization    =    16.29 Bohr mag/cell

     iteration # 19     ecut=    90.00 Ry     beta= 0.20
     CG style diagonalization
     ethr =  2.87E-10,  avg # of iterations =  3.0

     negative rho (up, down):  4.596E-05 0.000E+00

     total cpu time spent up to now is   100578.9 secs

     total energy              =   -2217.74800350 Ry
     estimated scf accuracy    <       0.00000031 Ry

     total magnetization       =    -8.46 Bohr mag/cell
     absolute magnetization    =    16.29 Bohr mag/cell

     iteration # 20     ecut=    90.00 Ry     beta= 0.20
     CG style diagonalization
     ethr =  2.34E-10,  avg # of iterations =  3.0

     negative rho (up, down):  4.585E-05 0.000E+00

     total cpu time spent up to now is   100609.1 secs

     total energy              =   -2217.74800352 Ry
     estimated scf accuracy    <       0.00000029 Ry

     total magnetization       =    -8.46 Bohr mag/cell
     absolute magnetization    =    16.29 Bohr mag/cell

     iteration # 21     ecut=    90.00 Ry     beta= 0.20
     CG style diagonalization
     ethr =  2.17E-10,  avg # of iterations =  3.1

     negative rho (up, down):  4.584E-05 0.000E+00

     total cpu time spent up to now is   100639.4 secs

     total energy              =   -2217.74800355 Ry
     estimated scf accuracy    <       0.00000012 Ry

     total magnetization       =    -8.46 Bohr mag/cell
     absolute magnetization    =    16.29 Bohr mag/cell

     iteration # 22     ecut=    90.00 Ry     beta= 0.20
     CG style diagonalization
     ethr =  9.33E-11,  avg # of iterations =  3.0

     negative rho (up, down):  4.584E-05 0.000E+00

     total cpu time spent up to now is   100669.5 secs

     total energy              =   -2217.74800356 Ry
     estimated scf accuracy    <       0.00000007 Ry

     total magnetization       =    -8.46 Bohr mag/cell
     absolute magnetization    =    16.29 Bohr mag/cell

     iteration # 23     ecut=    90.00 Ry     beta= 0.20
     CG style diagonalization
     ethr =  5.58E-11,  avg # of iterations =  3.0

     negative rho (up, down):  4.584E-05 0.000E+00

     total cpu time spent up to now is   100699.5 secs

     total energy              =   -2217.74800357 Ry
     estimated scf accuracy    <       0.00000005 Ry

     total magnetization       =    -8.46 Bohr mag/cell
     absolute magnetization    =    16.29 Bohr mag/cell

     iteration # 24     ecut=    90.00 Ry     beta= 0.20
     CG style diagonalization
     ethr =  3.80E-11,  avg # of iterations =  3.0

     negative rho (up, down):  4.582E-05 0.000E+00

     total cpu time spent up to now is   100729.4 secs

     total energy              =   -2217.74800357 Ry
     estimated scf accuracy    <       0.00000004 Ry

     total magnetization       =    -8.46 Bohr mag/cell
     absolute magnetization    =    16.29 Bohr mag/cell

     iteration # 25     ecut=    90.00 Ry     beta= 0.20
     CG style diagonalization
     ethr =  3.38E-11,  avg # of iterations =  3.2

     negative rho (up, down):  4.584E-05 0.000E+00

     total cpu time spent up to now is   100761.3 secs

     total energy              =   -2217.74800358 Ry
     estimated scf accuracy    <       0.00000002 Ry

     total magnetization       =    -8.46 Bohr mag/cell
     absolute magnetization    =    16.29 Bohr mag/cell

     iteration # 26     ecut=    90.00 Ry     beta= 0.20
     CG style diagonalization
     ethr =  1.73E-11,  avg # of iterations =  3.0

     negative rho (up, down):  4.584E-05 0.000E+00

     total cpu time spent up to now is   100791.3 secs

     total energy              =   -2217.74800358 Ry
     estimated scf accuracy    <       0.00000002 Ry

     total magnetization       =    -8.46 Bohr mag/cell
     absolute magnetization    =    16.29 Bohr mag/cell

     iteration # 27     ecut=    90.00 Ry     beta= 0.20
     CG style diagonalization
     ethr =  1.17E-11,  avg # of iterations =  3.1

     negative rho (up, down):  4.585E-05 0.000E+00

     total cpu time spent up to now is   100821.8 secs

     total energy              =   -2217.74800358 Ry
     estimated scf accuracy    <       0.00000003 Ry

     total magnetization       =    -8.46 Bohr mag/cell
     absolute magnetization    =    16.29 Bohr mag/cell

     iteration # 28     ecut=    90.00 Ry     beta= 0.20
     CG style diagonalization
     ethr =  1.17E-11,  avg # of iterations =  3.0

     negative rho (up, down):  4.589E-05 0.000E+00

     Magnetic moment per site:
     atom:    1    charge:   16.1650    magn:   -0.2475    constr:    0.0000
     atom:    2    charge:   12.6694    magn:   -3.2928    constr:    0.0000
     atom:    3    charge:   16.1646    magn:   -0.2006    constr:    0.0000
     atom:    4    charge:   12.6652    magn:   -3.2875    constr:    0.0000
     atom:    5    charge:   16.1355    magn:   -0.2473    constr:    0.0000
     atom:    6    charge:   12.6812    magn:   -3.3257    constr:    0.0000
     atom:    7    charge:   16.1692    magn:   -0.6132    constr:    0.0000
     atom:    8    charge:   12.6448    magn:    3.3164    constr:    0.0000

     total cpu time spent up to now is   100851.7 secs

     End of self-consistent calculation

     Number of k-points >= 100: set verbosity='high' to print the bands.

     the Fermi energy is    14.2040 ev

!    total energy              =   -2217.74800358 Ry
     estimated scf accuracy    <          8.8E-09 Ry
     smearing contrib. (-TS)   =      -0.00397804 Ry
     internal energy E=F+TS    =   -2217.74402554 Ry

     total magnetization       =    -8.46 Bohr mag/cell
     absolute magnetization    =    16.29 Bohr mag/cell

     convergence has been achieved in  28 iterations

     negative rho (up, down):  4.589E-05 0.000E+00

     Forces acting on atoms (cartesian axes, Ry/au):

     atom    1 type  1   force =    -0.03388838    0.00938991   -0.01727376
     atom    2 type  2   force =     0.00651907    0.00661919   -0.00463344
     atom    3 type  1   force =    -0.00497256   -0.01487627    0.03208278
     atom    4 type  2   force =     0.00215914    0.00268260   -0.01581143
     atom    5 type  1   force =     0.01306696   -0.01765378   -0.02326053
     atom    6 type  2   force =     0.00562462   -0.00757801    0.00105989
     atom    7 type  1   force =     0.01239073    0.02766261    0.01161373
     atom    8 type  2   force =    -0.00089959   -0.00624625    0.01622277

     Total force =     0.075168     Total SCF correction =     0.000179


     Computing stress (Cartesian axis) and pressure


     negative rho (up, down):  4.589E-05 0.000E+00
          total   stress  (Ry/bohr**3)                   (kbar)     P=      -47.45
  -0.00034336   0.00004253   0.00008388          -50.51        6.26       12.34
   0.00004253  -0.00024341  -0.00006088            6.26      -35.81       -8.96
   0.00008388  -0.00006088  -0.00038097           12.34       -8.96      -56.04


     Entering Dynamics;  it =   102   time =  0.09772 pico-seconds

  new lattice vectors (alat unit) :
   1.036725895   0.011425900   0.005081257
   0.011425900   1.031608950   0.000188469
   0.005081257   0.000188469   1.044552263
  new unit-cell volume =    750.9595 (a.u.)^3
  new positions in cryst coord
Ni      -0.073224384   0.533969153   0.014509750
Mn       0.512093017   0.042899936   0.428869986
Ni       0.008612661   0.008488482   0.576719265
Mn       0.417091609   0.423484060  -0.008957054
Ni       0.575618465  -0.076094977  -0.068547002
Mn      -0.001404872   0.504153562   0.499653189
Ni       0.492669759   0.535534579   0.482564240
Mn       0.068292458   0.027435530   0.074829045
  new positions in cart coord (alat unit)
Ni      -0.069738809   0.550013437   0.014884757
Mn       0.533569460   0.050187910   0.450587276
Ni       0.011956416   0.008963896   0.602458776
Mn       0.437202845   0.441633906  -0.007156947
Ni       0.595540809  -0.071936220  -0.068690402
Mn       0.006842807   0.520167444   0.522001748
Ni       0.519334494   0.558182409   0.506667882
Mn       0.071494260   0.029097144   0.078515030

     Ekin =     0.06003065 Ry    T =  672.9 K  Etot =    -2217.68796780
     new unit-cell volume =    750.95950 a.u.^3 (   111.28072 Ang^3 )
     density =      6.78244 g/cm^3

CELL_PARAMETERS (angstrom)
   4.806053903   0.052968186   0.023555689
   0.052968186   4.782332772   0.000873705
   0.023555689   0.000873705   4.842335381

ATOMIC_POSITIONS (angstrom)
Ni           -0.3232951719        2.5497522929        0.0690027575
Mn            2.4735213005        0.2326611144        2.0888324936
Ni            0.0554275533        0.0415548268        2.7928783946
Mn            2.0267849492        2.0473264601       -0.0331781766
Ni            2.7608080843       -0.3334819271       -0.3184349661
Mn            0.0317218833        2.4113922359        2.4198957055
Ni            2.4075308462        2.5876220098        2.3488109681
Mn            0.3314330927        0.1348885395        0.3639799766



     Maximum number of iterations reached, stopping

     init_run     :     12.69s CPU     13.29s WALL (       1 calls)
     electrons    :  96004.93s CPU  98782.74s WALL (     102 calls)
     update_pot   :    164.92s CPU    167.30s WALL (     101 calls)
     forces       :    592.30s CPU    620.21s WALL (     102 calls)
     stress       :   1178.36s CPU   1211.29s WALL (     102 calls)

     Called by init_run:
     wfcinit      :     10.77s CPU     11.06s WALL (       1 calls)
     potinit      :      0.50s CPU      0.53s WALL (       1 calls)
     hinit0       :      0.87s CPU      0.99s WALL (       1 calls)

     Called by electrons:
     c_bands      :  85261.78s CPU  86892.81s WALL (    2766 calls)
     sum_band     :   9207.56s CPU   9920.01s WALL (    2766 calls)
     v_of_rho     :    377.85s CPU    432.80s WALL (    2868 calls)
     newd         :   1133.66s CPU   1509.77s WALL (    2868 calls)
     mix_rho      :     34.14s CPU     44.05s WALL (    2766 calls)

     Called by c_bands:
     init_us_2    :    406.86s CPU    420.11s WALL (  722862 calls)
     ccgdiagg     :  65399.01s CPU  66624.39s WALL (  359947 calls)
     wfcrot       :  19151.71s CPU  19522.21s WALL (  347221 calls)

     Called by *cgdiagg:
     h_psi        :  46114.52s CPU  47029.03s WALL (72744645 calls)
     s_psi        :  15674.46s CPU  15958.15s WALL (******** calls)

     Called by h_psi:
     h_psi:calbec :   9885.78s CPU  10121.74s WALL (72744645 calls)
     vloc_psi     :  26793.67s CPU  27326.31s WALL (72744645 calls)
     add_vuspsi   :   8935.69s CPU   9084.83s WALL (72744645 calls)
     hs_1psi      :  41216.86s CPU  41990.00s WALL (72397424 calls)
     s_1psi       :  14455.25s CPU  14715.77s WALL (72397424 calls)

     General routines
     calbec       :  20086.34s CPU  20579.01s WALL (******** calls)
     fft          :    147.19s CPU    199.43s WALL (   75677 calls)
     ffts         :      4.81s CPU      4.90s WALL (   11268 calls)
     fftw         :  28112.77s CPU  28675.32s WALL (******** calls)
     interpolate  :     14.69s CPU     20.00s WALL (    5736 calls)

     Parallel routines
     fft_scatt_xy :   2718.56s CPU   2765.74s WALL (******** calls)
     fft_scatt_yz :  11942.66s CPU  12240.74s WALL (******** calls)

     PWSCF        :   1d 3h13m CPU   1d 4h 1m WALL


   This run was terminated on:   2: 3: 2  12Feb2022            

=------------------------------------------------------------------------------=
   JOB DONE.
=------------------------------------------------------------------------------=
Note: The following floating-point exceptions are signalling: IEEE_UNDERFLOW_FLAG IEEE_DENORMAL
Note: The following floating-point exceptions are signalling: IEEE_UNDERFLOW_FLAG IEEE_DENORMAL
Note: The following floating-point exceptions are signalling: IEEE_UNDERFLOW_FLAG IEEE_DENORMAL
Note: The following floating-point exceptions are signalling: IEEE_UNDERFLOW_FLAG IEEE_DENORMAL
Note: The following floating-point exceptions are signalling: IEEE_UNDERFLOW_FLAG IEEE_DENORMAL
Note: The following floating-point exceptions are signalling: IEEE_UNDERFLOW_FLAG IEEE_DENORMAL
Note: The following floating-point exceptions are signalling: IEEE_UNDERFLOW_FLAG IEEE_DENORMAL
Note: The following floating-point exceptions are signalling: IEEE_UNDERFLOW_FLAG IEEE_DENORMAL
Note: The following floating-point exceptions are signalling: IEEE_UNDERFLOW_FLAG IEEE_DENORMAL
Note: The following floating-point exceptions are signalling: IEEE_UNDERFLOW_FLAG IEEE_DENORMAL
Note: The following floating-point exceptions are signalling: IEEE_UNDERFLOW_FLAG IEEE_DENORMAL
Note: The following floating-point exceptions are signalling: IEEE_UNDERFLOW_FLAG IEEE_DENORMAL
Note: The following floating-point exceptions are signalling: IEEE_UNDERFLOW_FLAG IEEE_DENORMAL
Note: The following floating-point exceptions are signalling: IEEE_UNDERFLOW_FLAG IEEE_DENORMAL
Note: The following floating-point exceptions are signalling: IEEE_UNDERFLOW_FLAG IEEE_DENORMAL
Note: The following floating-point exceptions are signalling: IEEE_UNDERFLOW_FLAG IEEE_DENORMAL
Note: The following floating-point exceptions are signalling: IEEE_UNDERFLOW_FLAG IEEE_DENORMAL
Note: The following floating-point exceptions are signalling: IEEE_UNDERFLOW_FLAG IEEE_DENORMAL
Note: The following floating-point exceptions are signalling: IEEE_UNDERFLOW_FLAG IEEE_DENORMAL
Note: The following floating-point exceptions are signalling: IEEE_UNDERFLOW_FLAG IEEE_DENORMAL
Note: The following floating-point exceptions are signalling: IEEE_UNDERFLOW_FLAG IEEE_DENORMAL
Note: The following floating-point exceptions are signalling: IEEE_UNDERFLOW_FLAG IEEE_DENORMAL
Note: The following floating-point exceptions are signalling: IEEE_UNDERFLOW_FLAG IEEE_DENORMAL
Note: The following floating-point exceptions are signalling: IEEE_UNDERFLOW_FLAG IEEE_DENORMAL
