LAMMPS data file via write_data, version 10 Mar 2021, timestep = 0

4 atoms
1 atom types

0.0 4.040013712 xlo xhi
0.0 4.040013844 ylo yhi
0.0 4.040013849 zlo zhi
0 0 0 xy xz yz

Atoms

1 1	0.0000001929       -0.0000001834        0.0000000492
2 1	-0.0000002634        2.0200068503        2.0200069095
3 1	2.0200067086        0.0000001790        2.0200069404
4 1	2.0200070741        2.0200069983       -0.0000000505
