
     Program PWSCF v.6.7MaX starts on  3Mar2022 at 16: 7:47 

     This program is part of the open-source Quantum ESPRESSO suite
     for quantum simulation of materials; please cite
         "P. Giannozzi et al., J. Phys.:Condens. Matter 21 395502 (2009);
         "P. Giannozzi et al., J. Phys.:Condens. Matter 29 465901 (2017);
          URL http://www.quantum-espresso.org", 
     in publications or presentations arising from this work. More details at
     http://www.quantum-espresso.org/quote

     Parallel version (MPI), running on    24 processors

     MPI processes distributed on     1 nodes
     R & G space division:  proc/nbgrp/npool/nimage =      24
     Reading input from /home/kevin/QE_CoCrFeMnNi/CoCrFeMnNi/Opt/binary/Opt-B1-CoNi/Mix/MD/600K_0.0001Gpa-B1-CoNi/600K_0.0001Gpa-B1-CoNi.in

     Current dimensions of program PWSCF are:
     Max number of different atomic species (ntypx) = 10
     Max number of k-points (npk) =  40000
     Max angular momentum in pseudopotentials (lmaxx) =  3

     File ./pwscf.update deleted, as requested

     File ./pwscf.md deleted, as requested

     Subspace diagonalization in iterative solution of the eigenvalue problem:
     a serial algorithm will be used

     Found symmetry operation: I + (  0.0000  0.5000 -0.5000)
     This is a supercell, fractional translations are disabled

     Parallelization info
     --------------------
     sticks:   dense  smooth     PW     G-vecs:    dense   smooth      PW
     Min         271      90     24                16483     3174     458
     Max         272      91     25                16488     3179     463
     Sum        6509    2177    593               395663    76237   11067



     bravais-lattice index     =            0
     lattice parameter (alat)  =       8.7065  a.u.
     unit-cell volume          =     659.9881 (a.u.)^3
     number of atoms/cell      =            8
     number of atomic types    =            2
     number of electrons       =       140.00
     number of Kohn-Sham states=           84
     kinetic-energy cutoff     =      90.0000  Ry
     charge density cutoff     =    1080.0000  Ry
     scf convergence threshold =      1.0E-10
     mixing beta               =       0.2000
     number of iterations used =            8  plain     mixing
     energy convergence thresh.=      0.0E+00
     force convergence thresh. =      0.0E+00
     press convergence thresh. =      0.0E+00
     Exchange-correlation= SLA  PW   PBE  PBE
                           (   1   4   3   4   0   0   0)
     nstep                     =          102


     celldm(1)=   8.706535  celldm(2)=   0.000000  celldm(3)=   0.000000
     celldm(4)=   0.000000  celldm(5)=   0.000000  celldm(6)=   0.000000

     crystal axes: (cart. coord. in units of alat)
               a(1) = (   1.000000   0.000000   0.000000 )  
               a(2) = (   0.000000   1.000000   0.000000 )  
               a(3) = (   0.000000   0.000000   1.000000 )  

     reciprocal axes: (cart. coord. in units 2 pi/alat)
               b(1) = (  1.000000  0.000000  0.000000 )  
               b(2) = (  0.000000  1.000000  0.000000 )  
               b(3) = (  0.000000  0.000000  1.000000 )  


     PseudoPot. # 1 for Ni read from file:
     /opt/QEpot/SSSP_efficiency_pseudos/ni_pbe_v1.4.uspp.F.UPF
     MD5 check sum: 1ee80287db30b12d2bc1f57a5b5d6409
     Pseudo is Ultrasoft + core correction, Zval = 18.0
     Generated by new atomic code, or converted to UPF format
     Using radial grid of  865 points,  6 beta functions with: 
                l(1) =   0
                l(2) =   0
                l(3) =   1
                l(4) =   1
                l(5) =   2
                l(6) =   2
     Q(r) pseudized with 10 coefficients,  rinner =    0.980   0.980   0.980
                                                       0.980   0.980

     PseudoPot. # 2 for Co read from file:
     /opt/QEpot/SSSP_efficiency_pseudos/Co_pbe_v1.2.uspp.F.UPF
     MD5 check sum: 5f91765df6ddd3222702df6e7b74a16d
     Pseudo is Ultrasoft + core correction, Zval = 17.0
     Generated by new atomic code, or converted to UPF format
     Using radial grid of  863 points,  6 beta functions with: 
                l(1) =   0
                l(2) =   0
                l(3) =   1
                l(4) =   1
                l(5) =   2
                l(6) =   2
     Q(r) pseudized with  8 coefficients,  rinner =    1.200   1.200   1.200
                                                       1.200   1.200

     atomic species   valence    mass     pseudopotential
        Ni            18.00    58.69300     Ni( 1.00)
        Co            17.00    58.93300     Co( 1.00)

      cell mass =  35.75402 AMU 

     Starting magnetic structure 
     atomic species   magnetization
        Ni           0.200
        Co           0.200

     No symmetry found



   Cartesian axes

     site n.     atom                  positions (alat units)
         1           Ni  tau(   1) = (   0.0000000   0.5000000   0.0000000  )
         2           Co  tau(   2) = (   0.5000000   0.0000000   0.5000000  )
         3           Ni  tau(   3) = (   0.0000000   0.0000000   0.5000000  )
         4           Co  tau(   4) = (   0.5000000   0.5000000   0.0000000  )
         5           Ni  tau(   5) = (   0.5000000   0.0000000   0.0000000  )
         6           Co  tau(   6) = (   0.0000000   0.5000000   0.5000000  )
         7           Ni  tau(   7) = (   0.5000000   0.5000000   0.5000000  )
         8           Co  tau(   8) = (   0.0000000   0.0000000   0.0000000  )

     number of k points=    63  Gaussian smearing, width (Ry)=  0.0100
                       cart. coord. in units 2pi/alat
        k(    1) = (   0.0000000   0.0000000   0.0000000), wk =   0.0080000
        k(    2) = (   0.0000000   0.0000000   0.2000000), wk =   0.0160000
        k(    3) = (   0.0000000   0.0000000   0.4000000), wk =   0.0160000
        k(    4) = (   0.0000000   0.2000000   0.0000000), wk =   0.0160000
        k(    5) = (   0.0000000   0.2000000   0.2000000), wk =   0.0160000
        k(    6) = (   0.0000000   0.2000000   0.4000000), wk =   0.0160000
        k(    7) = (   0.0000000   0.2000000  -0.4000000), wk =   0.0160000
        k(    8) = (   0.0000000   0.2000000  -0.2000000), wk =   0.0160000
        k(    9) = (   0.0000000   0.4000000   0.0000000), wk =   0.0160000
        k(   10) = (   0.0000000   0.4000000   0.2000000), wk =   0.0160000
        k(   11) = (   0.0000000   0.4000000   0.4000000), wk =   0.0160000
        k(   12) = (   0.0000000   0.4000000  -0.4000000), wk =   0.0160000
        k(   13) = (   0.0000000   0.4000000  -0.2000000), wk =   0.0160000
        k(   14) = (   0.2000000   0.0000000   0.0000000), wk =   0.0160000
        k(   15) = (   0.2000000   0.0000000   0.2000000), wk =   0.0160000
        k(   16) = (   0.2000000   0.0000000   0.4000000), wk =   0.0160000
        k(   17) = (   0.2000000   0.0000000  -0.4000000), wk =   0.0160000
        k(   18) = (   0.2000000   0.0000000  -0.2000000), wk =   0.0160000
        k(   19) = (   0.2000000   0.2000000   0.0000000), wk =   0.0160000
        k(   20) = (   0.2000000   0.2000000   0.2000000), wk =   0.0160000
        k(   21) = (   0.2000000   0.2000000   0.4000000), wk =   0.0160000
        k(   22) = (   0.2000000   0.2000000  -0.4000000), wk =   0.0160000
        k(   23) = (   0.2000000   0.2000000  -0.2000000), wk =   0.0160000
        k(   24) = (   0.2000000   0.4000000   0.0000000), wk =   0.0160000
        k(   25) = (   0.2000000   0.4000000   0.2000000), wk =   0.0160000
        k(   26) = (   0.2000000   0.4000000   0.4000000), wk =   0.0160000
        k(   27) = (   0.2000000   0.4000000  -0.4000000), wk =   0.0160000
        k(   28) = (   0.2000000   0.4000000  -0.2000000), wk =   0.0160000
        k(   29) = (   0.2000000  -0.4000000   0.0000000), wk =   0.0160000
        k(   30) = (   0.2000000  -0.4000000   0.2000000), wk =   0.0160000
        k(   31) = (   0.2000000  -0.4000000   0.4000000), wk =   0.0160000
        k(   32) = (   0.2000000  -0.4000000  -0.4000000), wk =   0.0160000
        k(   33) = (   0.2000000  -0.4000000  -0.2000000), wk =   0.0160000
        k(   34) = (   0.2000000  -0.2000000   0.0000000), wk =   0.0160000
        k(   35) = (   0.2000000  -0.2000000   0.2000000), wk =   0.0160000
        k(   36) = (   0.2000000  -0.2000000   0.4000000), wk =   0.0160000
        k(   37) = (   0.2000000  -0.2000000  -0.4000000), wk =   0.0160000
        k(   38) = (   0.2000000  -0.2000000  -0.2000000), wk =   0.0160000
        k(   39) = (   0.4000000   0.0000000   0.0000000), wk =   0.0160000
        k(   40) = (   0.4000000   0.0000000   0.2000000), wk =   0.0160000
        k(   41) = (   0.4000000   0.0000000   0.4000000), wk =   0.0160000
        k(   42) = (   0.4000000   0.0000000  -0.4000000), wk =   0.0160000
        k(   43) = (   0.4000000   0.0000000  -0.2000000), wk =   0.0160000
        k(   44) = (   0.4000000   0.2000000   0.0000000), wk =   0.0160000
        k(   45) = (   0.4000000   0.2000000   0.2000000), wk =   0.0160000
        k(   46) = (   0.4000000   0.2000000   0.4000000), wk =   0.0160000
        k(   47) = (   0.4000000   0.2000000  -0.4000000), wk =   0.0160000
        k(   48) = (   0.4000000   0.2000000  -0.2000000), wk =   0.0160000
        k(   49) = (   0.4000000   0.4000000   0.0000000), wk =   0.0160000
        k(   50) = (   0.4000000   0.4000000   0.2000000), wk =   0.0160000
        k(   51) = (   0.4000000   0.4000000   0.4000000), wk =   0.0160000
        k(   52) = (   0.4000000   0.4000000  -0.4000000), wk =   0.0160000
        k(   53) = (   0.4000000   0.4000000  -0.2000000), wk =   0.0160000
        k(   54) = (   0.4000000  -0.4000000   0.0000000), wk =   0.0160000
        k(   55) = (   0.4000000  -0.4000000   0.2000000), wk =   0.0160000
        k(   56) = (   0.4000000  -0.4000000   0.4000000), wk =   0.0160000
        k(   57) = (   0.4000000  -0.4000000  -0.4000000), wk =   0.0160000
        k(   58) = (   0.4000000  -0.4000000  -0.2000000), wk =   0.0160000
        k(   59) = (   0.4000000  -0.2000000   0.0000000), wk =   0.0160000
        k(   60) = (   0.4000000  -0.2000000   0.2000000), wk =   0.0160000
        k(   61) = (   0.4000000  -0.2000000   0.4000000), wk =   0.0160000
        k(   62) = (   0.4000000  -0.2000000  -0.4000000), wk =   0.0160000
        k(   63) = (   0.4000000  -0.2000000  -0.2000000), wk =   0.0160000

     Dense  grid:   395663 G-vectors     FFT dimensions: (  96,  96,  96)

     Smooth grid:    76237 G-vectors     FFT dimensions: (  54,  54,  54)

     Estimated max dynamical RAM per process >     143.04 MB

     Estimated total dynamical RAM >       3.35 GB

     Check: negative core charge=   -0.000012
     Generating pointlists ...
     new r_m :   0.2063 (alat units)  1.7957 (a.u.) for type    1
     new r_m :   0.2063 (alat units)  1.7957 (a.u.) for type    2

     Initial potential from superposition of free atoms

     starting charge  127.99997, renormalised to  140.00000
     Starting wfcs are  104 randomized atomic wfcs

     total cpu time spent up to now is       13.7 secs

     Self-consistent Calculation

     iteration #  1     ecut=    90.00 Ry     beta= 0.20
     CG style diagonalization
     ethr =  1.00E-02,  avg # of iterations =  3.7

     total cpu time spent up to now is       54.4 secs

     total energy              =   -2548.71662500 Ry
     estimated scf accuracy    <     166.00461492 Ry

     total magnetization       =    13.40 Bohr mag/cell
     absolute magnetization    =    13.47 Bohr mag/cell

     iteration #  2     ecut=    90.00 Ry     beta= 0.20
     CG style diagonalization
     ethr =  1.00E-02,  avg # of iterations =  4.6

     total cpu time spent up to now is      101.8 secs

     total energy              =   -2562.14025799 Ry
     estimated scf accuracy    <      19.61191698 Ry

     total magnetization       =    12.97 Bohr mag/cell
     absolute magnetization    =    13.59 Bohr mag/cell

     iteration #  3     ecut=    90.00 Ry     beta= 0.20
     CG style diagonalization
     ethr =  1.00E-02,  avg # of iterations =  3.5

     total cpu time spent up to now is      137.9 secs

     total energy              =   -2564.13275716 Ry
     estimated scf accuracy    <      33.81435779 Ry

     total magnetization       =    13.62 Bohr mag/cell
     absolute magnetization    =    14.40 Bohr mag/cell

     iteration #  4     ecut=    90.00 Ry     beta= 0.20
     CG style diagonalization
     ethr =  1.00E-02,  avg # of iterations =  3.1

     total cpu time spent up to now is      170.2 secs

     total energy              =   -2566.36667748 Ry
     estimated scf accuracy    <       1.61563125 Ry

     total magnetization       =    12.61 Bohr mag/cell
     absolute magnetization    =    13.42 Bohr mag/cell

     iteration #  5     ecut=    90.00 Ry     beta= 0.20
     CG style diagonalization
     ethr =  1.15E-03,  avg # of iterations =  3.1

     total cpu time spent up to now is      202.3 secs

     total energy              =   -2566.52469907 Ry
     estimated scf accuracy    <       0.34121784 Ry

     total magnetization       =    12.32 Bohr mag/cell
     absolute magnetization    =    13.08 Bohr mag/cell

     iteration #  6     ecut=    90.00 Ry     beta= 0.20
     CG style diagonalization
     ethr =  2.44E-04,  avg # of iterations =  3.1

     total cpu time spent up to now is      234.9 secs

     total energy              =   -2566.55499642 Ry
     estimated scf accuracy    <       2.32822507 Ry

     total magnetization       =    11.84 Bohr mag/cell
     absolute magnetization    =    12.64 Bohr mag/cell

     iteration #  7     ecut=    90.00 Ry     beta= 0.20
     CG style diagonalization
     ethr =  2.44E-04,  avg # of iterations =  3.0

     total cpu time spent up to now is      266.5 secs

     total energy              =   -2566.60628864 Ry
     estimated scf accuracy    <       0.31276628 Ry

     total magnetization       =    11.71 Bohr mag/cell
     absolute magnetization    =    12.41 Bohr mag/cell

     iteration #  8     ecut=    90.00 Ry     beta= 0.20
     CG style diagonalization
     ethr =  2.23E-04,  avg # of iterations =  3.0

     total cpu time spent up to now is      298.0 secs

     total energy              =   -2566.61416722 Ry
     estimated scf accuracy    <       0.20514684 Ry

     total magnetization       =    11.63 Bohr mag/cell
     absolute magnetization    =    12.32 Bohr mag/cell

     iteration #  9     ecut=    90.00 Ry     beta= 0.20
     CG style diagonalization
     ethr =  1.47E-04,  avg # of iterations =  3.0

     total cpu time spent up to now is      329.5 secs

     total energy              =   -2566.62089214 Ry
     estimated scf accuracy    <       0.06587832 Ry

     total magnetization       =    11.37 Bohr mag/cell
     absolute magnetization    =    12.09 Bohr mag/cell

     iteration # 10     ecut=    90.00 Ry     beta= 0.20
     CG style diagonalization
     ethr =  4.71E-05,  avg # of iterations =  3.0

     total cpu time spent up to now is      361.2 secs

     total energy              =   -2566.62345846 Ry
     estimated scf accuracy    <       0.01128717 Ry

     total magnetization       =    11.27 Bohr mag/cell
     absolute magnetization    =    11.99 Bohr mag/cell

     iteration # 11     ecut=    90.00 Ry     beta= 0.20
     CG style diagonalization
     c_bands:  1 eigenvalues not converged
     c_bands:  1 eigenvalues not converged
     c_bands:  1 eigenvalues not converged
     c_bands:  1 eigenvalues not converged
     c_bands:  1 eigenvalues not converged
     c_bands:  1 eigenvalues not converged
     c_bands:  1 eigenvalues not converged
     c_bands:  1 eigenvalues not converged
     c_bands:  1 eigenvalues not converged
     c_bands:  1 eigenvalues not converged
     c_bands:  1 eigenvalues not converged
     c_bands:  1 eigenvalues not converged
     c_bands:  1 eigenvalues not converged
     c_bands:  1 eigenvalues not converged
     c_bands:  1 eigenvalues not converged
     c_bands:  1 eigenvalues not converged
     c_bands:  1 eigenvalues not converged
     c_bands:  1 eigenvalues not converged
     c_bands:  1 eigenvalues not converged
     c_bands:  1 eigenvalues not converged
     ethr =  8.06E-06,  avg # of iterations =  3.2

     total cpu time spent up to now is      394.5 secs

     total energy              =   -2566.62336814 Ry
     estimated scf accuracy    <       0.02735983 Ry

     total magnetization       =    11.13 Bohr mag/cell
     absolute magnetization    =    11.84 Bohr mag/cell

     iteration # 12     ecut=    90.00 Ry     beta= 0.20
     CG style diagonalization
     c_bands:  1 eigenvalues not converged
     c_bands:  1 eigenvalues not converged
     ethr =  8.06E-06,  avg # of iterations =  3.0

     total cpu time spent up to now is      426.1 secs

     total energy              =   -2566.62330962 Ry
     estimated scf accuracy    <       0.00405586 Ry

     total magnetization       =    11.15 Bohr mag/cell
     absolute magnetization    =    11.86 Bohr mag/cell

     iteration # 13     ecut=    90.00 Ry     beta= 0.20
     CG style diagonalization
     c_bands:  1 eigenvalues not converged
     c_bands:  1 eigenvalues not converged
     c_bands:  1 eigenvalues not converged
     c_bands:  1 eigenvalues not converged
     ethr =  2.90E-06,  avg # of iterations =  3.2

     total cpu time spent up to now is      459.6 secs

     total energy              =   -2566.62348924 Ry
     estimated scf accuracy    <       0.00870243 Ry

     total magnetization       =    11.11 Bohr mag/cell
     absolute magnetization    =    11.76 Bohr mag/cell

     iteration # 14     ecut=    90.00 Ry     beta= 0.20
     CG style diagonalization
     c_bands:  1 eigenvalues not converged
     ethr =  2.90E-06,  avg # of iterations =  3.0

     total cpu time spent up to now is      491.2 secs

     total energy              =   -2566.62360910 Ry
     estimated scf accuracy    <       0.00621580 Ry

     total magnetization       =    11.13 Bohr mag/cell
     absolute magnetization    =    11.79 Bohr mag/cell

     iteration # 15     ecut=    90.00 Ry     beta= 0.20
     CG style diagonalization
     ethr =  2.90E-06,  avg # of iterations =  3.0

     total cpu time spent up to now is      522.6 secs

     total energy              =   -2566.62396216 Ry
     estimated scf accuracy    <       0.00104779 Ry

     total magnetization       =    11.02 Bohr mag/cell
     absolute magnetization    =    11.69 Bohr mag/cell

     iteration # 16     ecut=    90.00 Ry     beta= 0.20
     CG style diagonalization
     c_bands:  1 eigenvalues not converged
     ethr =  7.48E-07,  avg # of iterations =  3.0

     total cpu time spent up to now is      554.1 secs

     total energy              =   -2566.62400347 Ry
     estimated scf accuracy    <       0.00193909 Ry

     total magnetization       =    11.04 Bohr mag/cell
     absolute magnetization    =    11.70 Bohr mag/cell

     iteration # 17     ecut=    90.00 Ry     beta= 0.20
     CG style diagonalization
     ethr =  7.48E-07,  avg # of iterations =  3.0

     total cpu time spent up to now is      585.5 secs

     total energy              =   -2566.62407158 Ry
     estimated scf accuracy    <       0.00039643 Ry

     total magnetization       =    11.05 Bohr mag/cell
     absolute magnetization    =    11.70 Bohr mag/cell

     iteration # 18     ecut=    90.00 Ry     beta= 0.20
     CG style diagonalization
     ethr =  2.83E-07,  avg # of iterations =  3.0

     total cpu time spent up to now is      616.9 secs

     total energy              =   -2566.62414398 Ry
     estimated scf accuracy    <       0.00010354 Ry

     total magnetization       =    11.07 Bohr mag/cell
     absolute magnetization    =    11.71 Bohr mag/cell

     iteration # 19     ecut=    90.00 Ry     beta= 0.20
     CG style diagonalization
     ethr =  7.40E-08,  avg # of iterations =  3.0

     total cpu time spent up to now is      648.3 secs

     total energy              =   -2566.62415671 Ry
     estimated scf accuracy    <       0.00008406 Ry

     total magnetization       =    11.15 Bohr mag/cell
     absolute magnetization    =    11.77 Bohr mag/cell

     iteration # 20     ecut=    90.00 Ry     beta= 0.20
     CG style diagonalization
     ethr =  6.00E-08,  avg # of iterations =  3.0

     total cpu time spent up to now is      679.8 secs

     total energy              =   -2566.62417075 Ry
     estimated scf accuracy    <       0.00028386 Ry

     total magnetization       =    11.14 Bohr mag/cell
     absolute magnetization    =    11.76 Bohr mag/cell

     iteration # 21     ecut=    90.00 Ry     beta= 0.20
     CG style diagonalization
     ethr =  6.00E-08,  avg # of iterations =  3.0

     total cpu time spent up to now is      711.1 secs

     total energy              =   -2566.62418335 Ry
     estimated scf accuracy    <       0.00001430 Ry

     total magnetization       =    11.16 Bohr mag/cell
     absolute magnetization    =    11.78 Bohr mag/cell

     iteration # 22     ecut=    90.00 Ry     beta= 0.20
     CG style diagonalization
     ethr =  1.02E-08,  avg # of iterations =  3.0

     total cpu time spent up to now is      742.6 secs

     total energy              =   -2566.62417935 Ry
     estimated scf accuracy    <       0.00012790 Ry

     total magnetization       =    11.17 Bohr mag/cell
     absolute magnetization    =    11.78 Bohr mag/cell

     iteration # 23     ecut=    90.00 Ry     beta= 0.20
     CG style diagonalization
     ethr =  1.02E-08,  avg # of iterations =  3.0

     total cpu time spent up to now is      773.9 secs

     total energy              =   -2566.62418387 Ry
     estimated scf accuracy    <       0.00001627 Ry

     total magnetization       =    11.16 Bohr mag/cell
     absolute magnetization    =    11.77 Bohr mag/cell

     iteration # 24     ecut=    90.00 Ry     beta= 0.20
     CG style diagonalization
     ethr =  1.02E-08,  avg # of iterations =  3.0

     total cpu time spent up to now is      805.3 secs

     total energy              =   -2566.62418638 Ry
     estimated scf accuracy    <       0.00000682 Ry

     total magnetization       =    11.17 Bohr mag/cell
     absolute magnetization    =    11.78 Bohr mag/cell

     iteration # 25     ecut=    90.00 Ry     beta= 0.20
     CG style diagonalization
     ethr =  4.87E-09,  avg # of iterations =  3.0

     total cpu time spent up to now is      836.6 secs

     total energy              =   -2566.62418698 Ry
     estimated scf accuracy    <       0.00000774 Ry

     total magnetization       =    11.17 Bohr mag/cell
     absolute magnetization    =    11.78 Bohr mag/cell

     iteration # 26     ecut=    90.00 Ry     beta= 0.20
     CG style diagonalization
     ethr =  4.87E-09,  avg # of iterations =  3.0

     total cpu time spent up to now is      867.9 secs

     total energy              =   -2566.62418677 Ry
     estimated scf accuracy    <       0.00005934 Ry

     total magnetization       =    11.17 Bohr mag/cell
     absolute magnetization    =    11.78 Bohr mag/cell

     iteration # 27     ecut=    90.00 Ry     beta= 0.20
     CG style diagonalization
     ethr =  4.87E-09,  avg # of iterations =  3.0

     total cpu time spent up to now is      899.2 secs

     total energy              =   -2566.62418885 Ry
     estimated scf accuracy    <       0.00000699 Ry

     total magnetization       =    11.18 Bohr mag/cell
     absolute magnetization    =    11.78 Bohr mag/cell

     iteration # 28     ecut=    90.00 Ry     beta= 0.20
     CG style diagonalization
     ethr =  4.87E-09,  avg # of iterations =  3.0

     total cpu time spent up to now is      930.5 secs

     total energy              =   -2566.62418936 Ry
     estimated scf accuracy    <       0.00000301 Ry

     total magnetization       =    11.18 Bohr mag/cell
     absolute magnetization    =    11.78 Bohr mag/cell

     iteration # 29     ecut=    90.00 Ry     beta= 0.20
     CG style diagonalization
     ethr =  2.15E-09,  avg # of iterations =  3.0

     total cpu time spent up to now is      961.9 secs

     total energy              =   -2566.62418947 Ry
     estimated scf accuracy    <       0.00000294 Ry

     total magnetization       =    11.18 Bohr mag/cell
     absolute magnetization    =    11.79 Bohr mag/cell

     iteration # 30     ecut=    90.00 Ry     beta= 0.20
     CG style diagonalization
     ethr =  2.10E-09,  avg # of iterations =  3.0

     total cpu time spent up to now is      993.2 secs

     total energy              =   -2566.62418957 Ry
     estimated scf accuracy    <       0.00000124 Ry

     total magnetization       =    11.18 Bohr mag/cell
     absolute magnetization    =    11.78 Bohr mag/cell

     iteration # 31     ecut=    90.00 Ry     beta= 0.20
     CG style diagonalization
     ethr =  8.83E-10,  avg # of iterations =  3.0

     total cpu time spent up to now is     1024.5 secs

     total energy              =   -2566.62418963 Ry
     estimated scf accuracy    <       0.00000121 Ry

     total magnetization       =    11.18 Bohr mag/cell
     absolute magnetization    =    11.79 Bohr mag/cell

     iteration # 32     ecut=    90.00 Ry     beta= 0.20
     CG style diagonalization
     ethr =  8.66E-10,  avg # of iterations =  3.0

     total cpu time spent up to now is     1055.8 secs

     total energy              =   -2566.62418969 Ry
     estimated scf accuracy    <       0.00000009 Ry

     total magnetization       =    11.18 Bohr mag/cell
     absolute magnetization    =    11.79 Bohr mag/cell

     iteration # 33     ecut=    90.00 Ry     beta= 0.20
     CG style diagonalization
     ethr =  6.55E-11,  avg # of iterations =  3.3

     total cpu time spent up to now is     1090.2 secs

     total energy              =   -2566.62418970 Ry
     estimated scf accuracy    <       0.00000035 Ry

     total magnetization       =    11.18 Bohr mag/cell
     absolute magnetization    =    11.79 Bohr mag/cell

     iteration # 34     ecut=    90.00 Ry     beta= 0.20
     CG style diagonalization
     ethr =  6.55E-11,  avg # of iterations =  3.0

     total cpu time spent up to now is     1121.6 secs

     total energy              =   -2566.62418971 Ry
     estimated scf accuracy    <       0.00000007 Ry

     total magnetization       =    11.18 Bohr mag/cell
     absolute magnetization    =    11.78 Bohr mag/cell

     iteration # 35     ecut=    90.00 Ry     beta= 0.20
     CG style diagonalization
     ethr =  5.34E-11,  avg # of iterations =  3.0

     total cpu time spent up to now is     1152.9 secs

     total energy              =   -2566.62418971 Ry
     estimated scf accuracy    <       0.00000006 Ry

     total magnetization       =    11.18 Bohr mag/cell
     absolute magnetization    =    11.78 Bohr mag/cell

     iteration # 36     ecut=    90.00 Ry     beta= 0.20
     CG style diagonalization
     ethr =  4.11E-11,  avg # of iterations =  3.0

     total cpu time spent up to now is     1184.2 secs

     total energy              =   -2566.62418971 Ry
     estimated scf accuracy    <       0.00000002 Ry

     total magnetization       =    11.18 Bohr mag/cell
     absolute magnetization    =    11.78 Bohr mag/cell

     iteration # 37     ecut=    90.00 Ry     beta= 0.20
     CG style diagonalization
     ethr =  1.47E-11,  avg # of iterations =  3.0

     total cpu time spent up to now is     1215.5 secs

     total energy              =   -2566.62418971 Ry
     estimated scf accuracy    <       0.00000004 Ry

     total magnetization       =    11.18 Bohr mag/cell
     absolute magnetization    =    11.78 Bohr mag/cell

     iteration # 38     ecut=    90.00 Ry     beta= 0.20
     CG style diagonalization
     ethr =  1.47E-11,  avg # of iterations =  3.0

     total cpu time spent up to now is     1246.8 secs

     total energy              =   -2566.62418972 Ry
     estimated scf accuracy    <       0.00000003 Ry

     total magnetization       =    11.18 Bohr mag/cell
     absolute magnetization    =    11.78 Bohr mag/cell

     iteration # 39     ecut=    90.00 Ry     beta= 0.20
     CG style diagonalization
     ethr =  1.47E-11,  avg # of iterations =  3.0

     total cpu time spent up to now is     1278.0 secs

     total energy              =   -2566.62418972 Ry
     estimated scf accuracy    <       0.00000003 Ry

     total magnetization       =    11.18 Bohr mag/cell
     absolute magnetization    =    11.78 Bohr mag/cell

     iteration # 40     ecut=    90.00 Ry     beta= 0.20
     CG style diagonalization
     ethr =  1.47E-11,  avg # of iterations =  3.0

     total cpu time spent up to now is     1309.2 secs

     total energy              =   -2566.62418972 Ry
     estimated scf accuracy    <       0.00000002 Ry

     total magnetization       =    11.18 Bohr mag/cell
     absolute magnetization    =    11.78 Bohr mag/cell

     iteration # 41     ecut=    90.00 Ry     beta= 0.20
     CG style diagonalization
     ethr =  1.15E-11,  avg # of iterations =  3.0

     total cpu time spent up to now is     1340.5 secs

     total energy              =   -2566.62418972 Ry
     estimated scf accuracy    <       0.00000002 Ry

     total magnetization       =    11.18 Bohr mag/cell
     absolute magnetization    =    11.78 Bohr mag/cell

     iteration # 42     ecut=    90.00 Ry     beta= 0.20
     CG style diagonalization
     ethr =  1.12E-11,  avg # of iterations =  3.0

     total cpu time spent up to now is     1371.7 secs

     total energy              =   -2566.62418972 Ry
     estimated scf accuracy    <          1.1E-09 Ry

     total magnetization       =    11.18 Bohr mag/cell
     absolute magnetization    =    11.78 Bohr mag/cell

     iteration # 43     ecut=    90.00 Ry     beta= 0.20
     CG style diagonalization
     ethr =  7.77E-13,  avg # of iterations =  3.0

     total cpu time spent up to now is     1403.0 secs

     total energy              =   -2566.62418972 Ry
     estimated scf accuracy    <          8.8E-10 Ry

     total magnetization       =    11.18 Bohr mag/cell
     absolute magnetization    =    11.78 Bohr mag/cell

     iteration # 44     ecut=    90.00 Ry     beta= 0.20
     CG style diagonalization
     ethr =  6.28E-13,  avg # of iterations =  3.0

     total cpu time spent up to now is     1434.2 secs

     total energy              =   -2566.62418972 Ry
     estimated scf accuracy    <          3.7E-09 Ry

     total magnetization       =    11.18 Bohr mag/cell
     absolute magnetization    =    11.78 Bohr mag/cell

     iteration # 45     ecut=    90.00 Ry     beta= 0.20
     CG style diagonalization
     ethr =  6.28E-13,  avg # of iterations =  3.0

     total cpu time spent up to now is     1465.4 secs

     total energy              =   -2566.62418972 Ry
     estimated scf accuracy    <          1.1E-09 Ry

     total magnetization       =    11.18 Bohr mag/cell
     absolute magnetization    =    11.78 Bohr mag/cell

     iteration # 46     ecut=    90.00 Ry     beta= 0.20
     CG style diagonalization
     ethr =  6.28E-13,  avg # of iterations =  3.0

     total cpu time spent up to now is     1496.7 secs

     total energy              =   -2566.62418972 Ry
     estimated scf accuracy    <          7.9E-10 Ry

     total magnetization       =    11.18 Bohr mag/cell
     absolute magnetization    =    11.78 Bohr mag/cell

     iteration # 47     ecut=    90.00 Ry     beta= 0.20
     CG style diagonalization
     ethr =  5.67E-13,  avg # of iterations =  3.0

     total cpu time spent up to now is     1527.9 secs

     total energy              =   -2566.62418972 Ry
     estimated scf accuracy    <          1.2E-09 Ry

     total magnetization       =    11.18 Bohr mag/cell
     absolute magnetization    =    11.78 Bohr mag/cell

     iteration # 48     ecut=    90.00 Ry     beta= 0.20
     CG style diagonalization
     ethr =  5.67E-13,  avg # of iterations =  3.0

     total cpu time spent up to now is     1559.1 secs

     total energy              =   -2566.62418972 Ry
     estimated scf accuracy    <          2.0E-10 Ry

     total magnetization       =    11.18 Bohr mag/cell
     absolute magnetization    =    11.78 Bohr mag/cell

     iteration # 49     ecut=    90.00 Ry     beta= 0.20
     CG style diagonalization
     ethr =  1.42E-13,  avg # of iterations =  3.0

     total cpu time spent up to now is     1590.3 secs

     total energy              =   -2566.62418972 Ry
     estimated scf accuracy    <          2.2E-10 Ry

     total magnetization       =    11.18 Bohr mag/cell
     absolute magnetization    =    11.78 Bohr mag/cell

     iteration # 50     ecut=    90.00 Ry     beta= 0.20
     CG style diagonalization
     ethr =  1.42E-13,  avg # of iterations =  3.0

     Magnetic moment per site:
     atom:    1    charge:   16.3305    magn:    0.8879    constr:    0.0000
     atom:    2    charge:   15.1473    magn:    1.9456    constr:    0.0000
     atom:    3    charge:   16.3305    magn:    0.8879    constr:    0.0000
     atom:    4    charge:   15.1473    magn:    1.9456    constr:    0.0000
     atom:    5    charge:   16.3305    magn:    0.8879    constr:    0.0000
     atom:    6    charge:   15.1473    magn:    1.9456    constr:    0.0000
     atom:    7    charge:   16.3305    magn:    0.8879    constr:    0.0000
     atom:    8    charge:   15.1473    magn:    1.9456    constr:    0.0000

     total cpu time spent up to now is     1621.5 secs

     End of self-consistent calculation

     Number of k-points >= 100: set verbosity='high' to print the bands.

     the Fermi energy is    15.9906 ev

!    total energy              =   -2566.62418972 Ry
     estimated scf accuracy    <          4.4E-11 Ry
     smearing contrib. (-TS)   =      -0.01231303 Ry
     internal energy E=F+TS    =   -2566.61187669 Ry

     total magnetization       =    11.18 Bohr mag/cell
     absolute magnetization    =    11.78 Bohr mag/cell

     convergence has been achieved in  50 iterations

     Forces acting on atoms (cartesian axes, Ry/au):

     atom    1 type  1   force =     0.00000002   -0.00000008    0.00000005
     atom    2 type  2   force =    -0.00000004    0.00000009   -0.00000001
     atom    3 type  1   force =     0.00000005    0.00000009   -0.00000013
     atom    4 type  2   force =    -0.00000002   -0.00000004    0.00000004
     atom    5 type  1   force =    -0.00000001    0.00000005    0.00000003
     atom    6 type  2   force =     0.00000005   -0.00000006   -0.00000003
     atom    7 type  1   force =    -0.00000007   -0.00000011   -0.00000006
     atom    8 type  2   force =     0.00000002    0.00000006    0.00000012

     Total force =     0.000000     Total SCF correction =     0.000001
     SCF correction compared to forces is large: reduce conv_thr to get better values


     Computing stress (Cartesian axis) and pressure

          total   stress  (Ry/bohr**3)                   (kbar)     P=       85.47
   0.00058100  -0.00000000  -0.00000000           85.47       -0.00       -0.00
  -0.00000000   0.00058100   0.00000000           -0.00       85.47        0.00
  -0.00000000   0.00000000   0.00058100           -0.00        0.00       85.47


     Entering Dynamics;  it =     1   time =  0.00000 pico-seconds


     File pwscf.e deleted, as requested

     File pwscf.eal deleted, as requested

     File pwscf.ave deleted, as requested

     File pwscf.p deleted, as requested

     File pwscf.avec deleted, as requested

     File pwscf.tv deleted, as requested
  new lattice vectors (alat unit) :
   1.000044807  -0.000001380  -0.000000107
  -0.000001380   1.000042611   0.000001258
  -0.000000107   0.000001258   1.000045377
  new unit-cell volume =    660.0757 (a.u.)^3
  new positions in cryst coord
Ni      -0.001343309   0.500238613  -0.000603210
Co       0.500060599  -0.000063222   0.499716529
Ni       0.000291784  -0.000003135   0.501100141
Co       0.500200265   0.499608485  -0.000661255
Ni       0.501047926  -0.000723845  -0.000766084
Co      -0.000293402   0.500352416   0.500939779
Ni       0.500003598   0.500488367   0.500269152
Co       0.000032538   0.000102321   0.000004946
  new positions in cart coord (alat unit)
Ni      -0.001344059   0.500259930  -0.000602608
Co       0.500082952  -0.000063286   0.499739151
Ni       0.000291744  -0.000002505   0.501122880
Co       0.500221988   0.499629082  -0.000660709
Ni       0.501070378  -0.000724568  -0.000766173
Co      -0.000294159   0.500374367   0.500963140
Ni       0.500025258   0.500509632   0.500292429
Co       0.000032539   0.000102326   0.000004947

     Ekin =     0.03990183 Ry    T =    0.0 K  Etot =    -2566.58428340
     new unit-cell volume =    660.07570 a.u.^3 (    97.81313 Ang^3 )
     density =      7.98758 g/cm^3

CELL_PARAMETERS (angstrom)
   4.607506440  -0.000006360  -0.000000491
  -0.000006360   4.607496322   0.000005796
  -0.000000491   0.000005796   4.607509066

ATOMIC_POSITIONS (angstrom)
Ni           -0.0061924842        2.3048475751       -0.0027763955
Co            2.3040321856       -0.0002915770        2.3024481922
Ni            0.0013441516       -0.0000115423        2.3088234435
Co            2.3046727660        2.3019410704       -0.0030440866
Ni            2.3085815529       -0.0033383018       -0.0035299878
Co           -0.0013552806        2.3053748214        2.3080874747
Ni            2.3037663690        2.3059980280        2.3049973102
Co            0.0001499185        0.0004714445        0.0000227907



     Writing output data file ./pwscf.save/
     NEW-OLD atomic charge density approx. for the potential

     Check: negative core charge=   -0.000012
     extrapolated charge  140.01700, renormalised to  140.00000
     Generating pointlists ...

     total cpu time spent up to now is     1642.1 secs

     Self-consistent Calculation

     iteration #  1     ecut=    90.00 Ry     beta= 0.20
     CG style diagonalization
     c_bands:  2 eigenvalues not converged
     c_bands:  1 eigenvalues not converged
     c_bands:  1 eigenvalues not converged
     c_bands:  1 eigenvalues not converged
     c_bands:  2 eigenvalues not converged
     c_bands:  1 eigenvalues not converged
     c_bands:  1 eigenvalues not converged
     c_bands:  1 eigenvalues not converged
     c_bands:  2 eigenvalues not converged
     c_bands:  1 eigenvalues not converged
     c_bands:  1 eigenvalues not converged
     c_bands:  1 eigenvalues not converged
     c_bands:  3 eigenvalues not converged
     c_bands:  1 eigenvalues not converged
     c_bands:  1 eigenvalues not converged
     c_bands:  2 eigenvalues not converged
     c_bands:  2 eigenvalues not converged
     c_bands:  1 eigenvalues not converged
     c_bands:  1 eigenvalues not converged
     c_bands:  1 eigenvalues not converged
     c_bands:  2 eigenvalues not converged
     c_bands:  1 eigenvalues not converged
     c_bands:  1 eigenvalues not converged
     c_bands:  1 eigenvalues not converged
     c_bands:  3 eigenvalues not converged
     c_bands:  1 eigenvalues not converged
     c_bands:  1 eigenvalues not converged
     c_bands:  1 eigenvalues not converged
     c_bands:  1 eigenvalues not converged
     c_bands:  2 eigenvalues not converged
     c_bands:  1 eigenvalues not converged
     c_bands:  1 eigenvalues not converged
     c_bands:  1 eigenvalues not converged
     c_bands:  1 eigenvalues not converged
     c_bands:  1 eigenvalues not converged
     c_bands:  1 eigenvalues not converged
     c_bands:  1 eigenvalues not converged
     c_bands:  1 eigenvalues not converged
     c_bands:  1 eigenvalues not converged
     c_bands:  2 eigenvalues not converged
     c_bands:  2 eigenvalues not converged
     c_bands:  1 eigenvalues not converged
     c_bands:  1 eigenvalues not converged
     c_bands:  2 eigenvalues not converged
     c_bands:  2 eigenvalues not converged
     c_bands:  1 eigenvalues not converged
     c_bands:  1 eigenvalues not converged
     c_bands:  1 eigenvalues not converged
     c_bands:  1 eigenvalues not converged
     c_bands:  2 eigenvalues not converged
     c_bands:  2 eigenvalues not converged
     c_bands:  2 eigenvalues not converged
     c_bands:  1 eigenvalues not converged
     c_bands:  1 eigenvalues not converged
     c_bands:  1 eigenvalues not converged
     c_bands:  1 eigenvalues not converged
     c_bands:  2 eigenvalues not converged
     c_bands:  2 eigenvalues not converged
     c_bands:  2 eigenvalues not converged
     c_bands:  1 eigenvalues not converged
     c_bands:  1 eigenvalues not converged
     ethr =  1.00E-06,  avg # of iterations =  6.2

     total cpu time spent up to now is     1706.7 secs

     total energy              =   -2566.62391530 Ry
     estimated scf accuracy    <       0.00111981 Ry

     total magnetization       =    11.21 Bohr mag/cell
     absolute magnetization    =    11.81 Bohr mag/cell

     iteration #  2     ecut=    90.00 Ry     beta= 0.20
     CG style diagonalization
     ethr =  8.00E-07,  avg # of iterations =  3.5

     total cpu time spent up to now is     1742.9 secs

     total energy              =   -2566.62415653 Ry
     estimated scf accuracy    <       0.00047279 Ry

     total magnetization       =    11.17 Bohr mag/cell
     absolute magnetization    =    11.77 Bohr mag/cell

     iteration #  3     ecut=    90.00 Ry     beta= 0.20
     CG style diagonalization
     ethr =  3.38E-07,  avg # of iterations =  3.2

     total cpu time spent up to now is     1776.1 secs

     total energy              =   -2566.62416457 Ry
     estimated scf accuracy    <       0.00042520 Ry

     total magnetization       =    11.17 Bohr mag/cell
     absolute magnetization    =    11.77 Bohr mag/cell

     iteration #  4     ecut=    90.00 Ry     beta= 0.20
     CG style diagonalization
     ethr =  3.04E-07,  avg # of iterations =  3.0

     total cpu time spent up to now is     1807.6 secs

     total energy              =   -2566.62417030 Ry
     estimated scf accuracy    <       0.00050098 Ry

     total magnetization       =    11.19 Bohr mag/cell
     absolute magnetization    =    11.79 Bohr mag/cell

     iteration #  5     ecut=    90.00 Ry     beta= 0.20
     CG style diagonalization
     ethr =  3.04E-07,  avg # of iterations =  3.0

     total cpu time spent up to now is     1839.1 secs

     total energy              =   -2566.62416454 Ry
     estimated scf accuracy    <       0.00166527 Ry

     total magnetization       =    11.19 Bohr mag/cell
     absolute magnetization    =    11.79 Bohr mag/cell

     iteration #  6     ecut=    90.00 Ry     beta= 0.20
     CG style diagonalization
     ethr =  3.04E-07,  avg # of iterations =  3.0

     total cpu time spent up to now is     1870.6 secs

     total energy              =   -2566.62420180 Ry
     estimated scf accuracy    <       0.00000697 Ry

     total magnetization       =    11.19 Bohr mag/cell
     absolute magnetization    =    11.79 Bohr mag/cell

     iteration #  7     ecut=    90.00 Ry     beta= 0.20
     CG style diagonalization
     ethr =  4.98E-09,  avg # of iterations =  3.5

     total cpu time spent up to now is     1906.9 secs

     total energy              =   -2566.62420264 Ry
     estimated scf accuracy    <       0.00004636 Ry

     total magnetization       =    11.18 Bohr mag/cell
     absolute magnetization    =    11.78 Bohr mag/cell

     iteration #  8     ecut=    90.00 Ry     beta= 0.20
     CG style diagonalization
     ethr =  4.98E-09,  avg # of iterations =  3.0

     total cpu time spent up to now is     1938.4 secs

     total energy              =   -2566.62420354 Ry
     estimated scf accuracy    <       0.00000359 Ry

     total magnetization       =    11.18 Bohr mag/cell
     absolute magnetization    =    11.78 Bohr mag/cell

     iteration #  9     ecut=    90.00 Ry     beta= 0.20
     CG style diagonalization
     ethr =  2.56E-09,  avg # of iterations =  3.0

     total cpu time spent up to now is     1969.9 secs

     total energy              =   -2566.62420350 Ry
     estimated scf accuracy    <       0.00000269 Ry

     total magnetization       =    11.18 Bohr mag/cell
     absolute magnetization    =    11.78 Bohr mag/cell

     iteration # 10     ecut=    90.00 Ry     beta= 0.20
     CG style diagonalization
     ethr =  1.92E-09,  avg # of iterations =  3.0

     total cpu time spent up to now is     2001.4 secs

     total energy              =   -2566.62420353 Ry
     estimated scf accuracy    <       0.00000048 Ry

     total magnetization       =    11.18 Bohr mag/cell
     absolute magnetization    =    11.78 Bohr mag/cell

     iteration # 11     ecut=    90.00 Ry     beta= 0.20
     CG style diagonalization
     ethr =  3.41E-10,  avg # of iterations =  3.5

     total cpu time spent up to now is     2037.6 secs

     total energy              =   -2566.62420359 Ry
     estimated scf accuracy    <       0.00000112 Ry

     total magnetization       =    11.18 Bohr mag/cell
     absolute magnetization    =    11.79 Bohr mag/cell

     iteration # 12     ecut=    90.00 Ry     beta= 0.20
     CG style diagonalization
     ethr =  3.41E-10,  avg # of iterations =  3.0

     total cpu time spent up to now is     2069.1 secs

     total energy              =   -2566.62420365 Ry
     estimated scf accuracy    <       0.00000013 Ry

     total magnetization       =    11.18 Bohr mag/cell
     absolute magnetization    =    11.79 Bohr mag/cell

     iteration # 13     ecut=    90.00 Ry     beta= 0.20
     CG style diagonalization
     ethr =  8.97E-11,  avg # of iterations =  3.0

     total cpu time spent up to now is     2100.8 secs

     total energy              =   -2566.62420366 Ry
     estimated scf accuracy    <       0.00000003 Ry

     total magnetization       =    11.18 Bohr mag/cell
     absolute magnetization    =    11.79 Bohr mag/cell

     iteration # 14     ecut=    90.00 Ry     beta= 0.20
     CG style diagonalization
     ethr =  2.21E-11,  avg # of iterations =  3.0

     total cpu time spent up to now is     2132.6 secs

     total energy              =   -2566.62420366 Ry
     estimated scf accuracy    <       0.00000005 Ry

     total magnetization       =    11.18 Bohr mag/cell
     absolute magnetization    =    11.79 Bohr mag/cell

     iteration # 15     ecut=    90.00 Ry     beta= 0.20
     CG style diagonalization
     ethr =  2.21E-11,  avg # of iterations =  3.0

     total cpu time spent up to now is     2164.2 secs

     total energy              =   -2566.62420366 Ry
     estimated scf accuracy    <          8.3E-09 Ry

     total magnetization       =    11.18 Bohr mag/cell
     absolute magnetization    =    11.79 Bohr mag/cell

     iteration # 16     ecut=    90.00 Ry     beta= 0.20
     CG style diagonalization
     ethr =  5.93E-12,  avg # of iterations =  3.0

     total cpu time spent up to now is     2195.7 secs

     total energy              =   -2566.62420366 Ry
     estimated scf accuracy    <       0.00000003 Ry

     total magnetization       =    11.18 Bohr mag/cell
     absolute magnetization    =    11.79 Bohr mag/cell

     iteration # 17     ecut=    90.00 Ry     beta= 0.20
     CG style diagonalization
     ethr =  5.93E-12,  avg # of iterations =  3.0

     total cpu time spent up to now is     2227.2 secs

     total energy              =   -2566.62420366 Ry
     estimated scf accuracy    <          9.7E-09 Ry

     total magnetization       =    11.18 Bohr mag/cell
     absolute magnetization    =    11.79 Bohr mag/cell

     iteration # 18     ecut=    90.00 Ry     beta= 0.20
     CG style diagonalization
     ethr =  5.93E-12,  avg # of iterations =  3.0

     total cpu time spent up to now is     2258.8 secs

     total energy              =   -2566.62420366 Ry
     estimated scf accuracy    <          6.4E-09 Ry

     total magnetization       =    11.18 Bohr mag/cell
     absolute magnetization    =    11.79 Bohr mag/cell

     iteration # 19     ecut=    90.00 Ry     beta= 0.20
     CG style diagonalization
     ethr =  4.60E-12,  avg # of iterations =  3.0

     total cpu time spent up to now is     2290.3 secs

     total energy              =   -2566.62420366 Ry
     estimated scf accuracy    <          1.2E-09 Ry

     total magnetization       =    11.18 Bohr mag/cell
     absolute magnetization    =    11.79 Bohr mag/cell

     iteration # 20     ecut=    90.00 Ry     beta= 0.20
     CG style diagonalization
     ethr =  8.38E-13,  avg # of iterations =  3.0

     total cpu time spent up to now is     2321.9 secs

     total energy              =   -2566.62420366 Ry
     estimated scf accuracy    <          1.7E-09 Ry

     total magnetization       =    11.18 Bohr mag/cell
     absolute magnetization    =    11.79 Bohr mag/cell

     iteration # 21     ecut=    90.00 Ry     beta= 0.20
     CG style diagonalization
     ethr =  8.38E-13,  avg # of iterations =  3.0

     total cpu time spent up to now is     2353.5 secs

     total energy              =   -2566.62420367 Ry
     estimated scf accuracy    <          3.0E-09 Ry

     total magnetization       =    11.18 Bohr mag/cell
     absolute magnetization    =    11.79 Bohr mag/cell

     iteration # 22     ecut=    90.00 Ry     beta= 0.20
     CG style diagonalization
     ethr =  8.38E-13,  avg # of iterations =  3.0

     total cpu time spent up to now is     2385.0 secs

     total energy              =   -2566.62420367 Ry
     estimated scf accuracy    <          2.3E-10 Ry

     total magnetization       =    11.18 Bohr mag/cell
     absolute magnetization    =    11.79 Bohr mag/cell

     iteration # 23     ecut=    90.00 Ry     beta= 0.20
     CG style diagonalization
     ethr =  1.66E-13,  avg # of iterations =  3.0

     total cpu time spent up to now is     2416.6 secs

     total energy              =   -2566.62420367 Ry
     estimated scf accuracy    <          1.2E-10 Ry

     total magnetization       =    11.18 Bohr mag/cell
     absolute magnetization    =    11.79 Bohr mag/cell

     iteration # 24     ecut=    90.00 Ry     beta= 0.20
     CG style diagonalization
     ethr =  1.00E-13,  avg # of iterations =  3.4

     Magnetic moment per site:
     atom:    1    charge:   16.3304    magn:    0.8879    constr:    0.0000
     atom:    2    charge:   15.1472    magn:    1.9457    constr:    0.0000
     atom:    3    charge:   16.3304    magn:    0.8879    constr:    0.0000
     atom:    4    charge:   15.1472    magn:    1.9457    constr:    0.0000
     atom:    5    charge:   16.3304    magn:    0.8879    constr:    0.0000
     atom:    6    charge:   15.1472    magn:    1.9457    constr:    0.0000
     atom:    7    charge:   16.3304    magn:    0.8879    constr:    0.0000
     atom:    8    charge:   15.1472    magn:    1.9457    constr:    0.0000

     total cpu time spent up to now is     2452.4 secs

     End of self-consistent calculation

     Number of k-points >= 100: set verbosity='high' to print the bands.

     the Fermi energy is    15.9879 ev

!    total energy              =   -2566.62420367 Ry
     estimated scf accuracy    <          7.4E-11 Ry
     smearing contrib. (-TS)   =      -0.01231130 Ry
     internal energy E=F+TS    =   -2566.61189237 Ry

     total magnetization       =    11.18 Bohr mag/cell
     absolute magnetization    =    11.79 Bohr mag/cell

     convergence has been achieved in  24 iterations

     Forces acting on atoms (cartesian axes, Ry/au):

     atom    1 type  1   force =     0.00132494   -0.00004783    0.00179778
     atom    2 type  2   force =     0.00000603    0.00084632   -0.00116936
     atom    3 type  1   force =    -0.00005512    0.00042799   -0.00101310
     atom    4 type  2   force =    -0.00207602   -0.00084889    0.00115504
     atom    5 type  1   force =    -0.00082218    0.00005416    0.00042647
     atom    6 type  2   force =     0.00049998   -0.00043566   -0.00173703
     atom    7 type  1   force =    -0.00044721   -0.00043425   -0.00121093
     atom    8 type  2   force =     0.00156957    0.00043816    0.00175112

     Total force =     0.005152     Total SCF correction =     0.000016


     Computing stress (Cartesian axis) and pressure

          total   stress  (Ry/bohr**3)                   (kbar)     P=       85.27
   0.00057969   0.00000000   0.00000002           85.27        0.00        0.00
   0.00000000   0.00057960  -0.00000001            0.00       85.26       -0.00
   0.00000002  -0.00000001   0.00057966            0.00       -0.00       85.27


     Entering Dynamics;  it =     2   time =  0.00097 pico-seconds

  new lattice vectors (alat unit) :
   1.000167145  -0.000005152  -0.000000396
  -0.000005152   1.000158939   0.000004696
  -0.000000396   0.000004696   1.000169267
  new unit-cell volume =    660.3150 (a.u.)^3
  new positions in cryst coord
Ni      -0.002864471   0.500508985  -0.001285207
Co       0.500129280  -0.000134113   0.499394232
Ni       0.000622410  -0.000006308   0.502346004
Co       0.500425366   0.499164029  -0.001409610
Ni       0.502234784  -0.001544115  -0.001633887
Co      -0.000625462   0.500751411   0.502003262
Ni       0.500007277   0.501041438   0.500573090
Co       0.000070815   0.000218673   0.000012116
  new positions in cart coord (alat unit)
Ni      -0.002867528   0.500588544  -0.001283073
Co       0.500212677  -0.000134366   0.499478565
Ni       0.000622315  -0.000003953   0.502431035
Co       0.500506438   0.499240781  -0.001407702
Ni       0.502318739  -0.001546956  -0.001634369
Co      -0.000628345   0.500833361   0.502090586
Ni       0.500088071   0.501120848   0.500659976
Co       0.000070826   0.000218707   0.000012119

     Ekin =     0.03993314 Ry    T =  467.0 K  Etot =    -2566.58426604
     new unit-cell volume =    660.31504 a.u.^3 (    97.84859 Ang^3 )
     density =      7.98469 g/cm^3

CELL_PARAMETERS (angstrom)
   4.608070085  -0.000023737  -0.000001823
  -0.000023737   4.608032281   0.000021635
  -0.000001823   0.000021635   4.608079866

ATOMIC_POSITIONS (angstrom)
Ni           -0.0132115606        2.3063615986       -0.0059115021
Co            2.3046298670       -0.0006190625        2.3012475921
Ni            0.0028671931       -0.0000182132        2.3148505057
Co            2.3059833124        2.3001520481       -0.0064857064
Ni            2.3143331254       -0.0071272889       -0.0075300306
Co           -0.0028949728        2.3074895437        2.3132819578
Ni            2.3040557696        2.3088140822        2.3066907053
Co            0.0003263175        0.0010076495        0.0000558344



     Writing output data file ./pwscf.save/
     NEW-OLD atomic charge density approx. for the potential

     Check: negative core charge=   -0.000012
     extrapolated charge  140.04639, renormalised to  140.00000
     Generating pointlists ...

     total cpu time spent up to now is     2474.4 secs

     Self-consistent Calculation

     iteration #  1     ecut=    90.00 Ry     beta= 0.20
     CG style diagonalization
     c_bands:  1 eigenvalues not converged
     c_bands:  2 eigenvalues not converged
     c_bands:  1 eigenvalues not converged
     c_bands:  1 eigenvalues not converged
     c_bands:  2 eigenvalues not converged
     c_bands:  1 eigenvalues not converged
     c_bands:  1 eigenvalues not converged
     c_bands:  1 eigenvalues not converged
     c_bands:  1 eigenvalues not converged
     c_bands:  1 eigenvalues not converged
     c_bands:  2 eigenvalues not converged
     c_bands:  1 eigenvalues not converged
     c_bands:  2 eigenvalues not converged
     c_bands:  2 eigenvalues not converged
     c_bands:  1 eigenvalues not converged
     c_bands:  3 eigenvalues not converged
     c_bands:  1 eigenvalues not converged
     c_bands:  2 eigenvalues not converged
     c_bands:  1 eigenvalues not converged
     c_bands:  2 eigenvalues not converged
     c_bands:  1 eigenvalues not converged
     c_bands:  2 eigenvalues not converged
     c_bands:  2 eigenvalues not converged
     c_bands:  1 eigenvalues not converged
     c_bands:  1 eigenvalues not converged
     c_bands:  1 eigenvalues not converged
     c_bands:  1 eigenvalues not converged
     c_bands:  1 eigenvalues not converged
     c_bands:  1 eigenvalues not converged
     c_bands:  1 eigenvalues not converged
     c_bands:  2 eigenvalues not converged
     c_bands:  1 eigenvalues not converged
     c_bands:  2 eigenvalues not converged
     c_bands:  1 eigenvalues not converged
     c_bands:  1 eigenvalues not converged
     c_bands:  1 eigenvalues not converged
     c_bands:  2 eigenvalues not converged
     c_bands:  1 eigenvalues not converged
     c_bands:  1 eigenvalues not converged
     c_bands:  2 eigenvalues not converged
     c_bands:  1 eigenvalues not converged
     c_bands:  1 eigenvalues not converged
     c_bands:  2 eigenvalues not converged
     c_bands:  1 eigenvalues not converged
     c_bands:  2 eigenvalues not converged
     c_bands:  4 eigenvalues not converged
     c_bands:  2 eigenvalues not converged
     c_bands:  1 eigenvalues not converged
     c_bands:  2 eigenvalues not converged
     c_bands:  3 eigenvalues not converged
     c_bands:  2 eigenvalues not converged
     c_bands:  2 eigenvalues not converged
     c_bands:  2 eigenvalues not converged
     c_bands:  1 eigenvalues not converged
     c_bands:  2 eigenvalues not converged
     c_bands:  1 eigenvalues not converged
     c_bands:  3 eigenvalues not converged
     c_bands:  2 eigenvalues not converged
     c_bands:  1 eigenvalues not converged
     c_bands:  1 eigenvalues not converged
     c_bands:  1 eigenvalues not converged
     c_bands:  1 eigenvalues not converged
     c_bands:  3 eigenvalues not converged
     c_bands:  5 eigenvalues not converged
     ethr =  1.00E-06,  avg # of iterations =  6.8

     total cpu time spent up to now is     2545.0 secs

     total energy              =   -2566.62300615 Ry
     estimated scf accuracy    <       0.00313142 Ry

     total magnetization       =    11.26 Bohr mag/cell
     absolute magnetization    =    11.85 Bohr mag/cell

     iteration #  2     ecut=    90.00 Ry     beta= 0.20
     CG style diagonalization
     ethr =  2.24E-06,  avg # of iterations =  3.5

     total cpu time spent up to now is     2581.6 secs

     total energy              =   -2566.62407058 Ry
     estimated scf accuracy    <       0.00278363 Ry

     total magnetization       =    11.15 Bohr mag/cell
     absolute magnetization    =    11.76 Bohr mag/cell

     iteration #  3     ecut=    90.00 Ry     beta= 0.20
     CG style diagonalization
     ethr =  1.99E-06,  avg # of iterations =  3.0

     total cpu time spent up to now is     2613.1 secs

     total energy              =   -2566.62416284 Ry
     estimated scf accuracy    <       0.00172827 Ry

     total magnetization       =    11.14 Bohr mag/cell
     absolute magnetization    =    11.75 Bohr mag/cell

     iteration #  4     ecut=    90.00 Ry     beta= 0.20
     CG style diagonalization
     ethr =  1.23E-06,  avg # of iterations =  3.0

     total cpu time spent up to now is     2644.6 secs

     total energy              =   -2566.62418345 Ry
     estimated scf accuracy    <       0.00115815 Ry

     total magnetization       =    11.17 Bohr mag/cell
     absolute magnetization    =    11.78 Bohr mag/cell

     iteration #  5     ecut=    90.00 Ry     beta= 0.20
     CG style diagonalization
     ethr =  8.27E-07,  avg # of iterations =  3.0

     total cpu time spent up to now is     2676.1 secs

     total energy              =   -2566.62414561 Ry
     estimated scf accuracy    <       0.00150630 Ry

     total magnetization       =    11.18 Bohr mag/cell
     absolute magnetization    =    11.79 Bohr mag/cell

     iteration #  6     ecut=    90.00 Ry     beta= 0.20
     CG style diagonalization
     ethr =  8.27E-07,  avg # of iterations =  3.0

     total cpu time spent up to now is     2707.5 secs

     total energy              =   -2566.62420806 Ry
     estimated scf accuracy    <       0.00002518 Ry

     total magnetization       =    11.19 Bohr mag/cell
     absolute magnetization    =    11.79 Bohr mag/cell

     iteration #  7     ecut=    90.00 Ry     beta= 0.20
     CG style diagonalization
     ethr =  1.80E-08,  avg # of iterations =  3.5

     total cpu time spent up to now is     2743.7 secs

     total energy              =   -2566.62421720 Ry
     estimated scf accuracy    <       0.00002632 Ry

     total magnetization       =    11.18 Bohr mag/cell
     absolute magnetization    =    11.79 Bohr mag/cell

     iteration #  8     ecut=    90.00 Ry     beta= 0.20
     CG style diagonalization
     ethr =  1.80E-08,  avg # of iterations =  3.0

     total cpu time spent up to now is     2775.2 secs

     total energy              =   -2566.62421802 Ry
     estimated scf accuracy    <       0.00002298 Ry

     total magnetization       =    11.18 Bohr mag/cell
     absolute magnetization    =    11.79 Bohr mag/cell

     iteration #  9     ecut=    90.00 Ry     beta= 0.20
     CG style diagonalization
     ethr =  1.64E-08,  avg # of iterations =  3.0

     total cpu time spent up to now is     2806.6 secs

     total energy              =   -2566.62421782 Ry
     estimated scf accuracy    <       0.00001684 Ry

     total magnetization       =    11.18 Bohr mag/cell
     absolute magnetization    =    11.78 Bohr mag/cell

     iteration # 10     ecut=    90.00 Ry     beta= 0.20
     CG style diagonalization
     ethr =  1.20E-08,  avg # of iterations =  3.0

     total cpu time spent up to now is     2838.2 secs

     total energy              =   -2566.62421624 Ry
     estimated scf accuracy    <       0.00000635 Ry

     total magnetization       =    11.18 Bohr mag/cell
     absolute magnetization    =    11.79 Bohr mag/cell

     iteration # 11     ecut=    90.00 Ry     beta= 0.20
     CG style diagonalization
     ethr =  4.54E-09,  avg # of iterations =  3.3

     total cpu time spent up to now is     2872.9 secs

     total energy              =   -2566.62421716 Ry
     estimated scf accuracy    <       0.00000022 Ry

     total magnetization       =    11.19 Bohr mag/cell
     absolute magnetization    =    11.79 Bohr mag/cell

     iteration # 12     ecut=    90.00 Ry     beta= 0.20
     CG style diagonalization
     ethr =  1.57E-10,  avg # of iterations =  3.5

     total cpu time spent up to now is     2909.0 secs

     total energy              =   -2566.62421718 Ry
     estimated scf accuracy    <       0.00000057 Ry

     total magnetization       =    11.19 Bohr mag/cell
     absolute magnetization    =    11.79 Bohr mag/cell

     iteration # 13     ecut=    90.00 Ry     beta= 0.20
     CG style diagonalization
     ethr =  1.57E-10,  avg # of iterations =  3.0

     total cpu time spent up to now is     2940.4 secs

     total energy              =   -2566.62421721 Ry
     estimated scf accuracy    <       0.00000022 Ry

     total magnetization       =    11.19 Bohr mag/cell
     absolute magnetization    =    11.79 Bohr mag/cell

     iteration # 14     ecut=    90.00 Ry     beta= 0.20
     CG style diagonalization
     ethr =  1.57E-10,  avg # of iterations =  3.0

     total cpu time spent up to now is     2971.9 secs

     total energy              =   -2566.62421721 Ry
     estimated scf accuracy    <       0.00000018 Ry

     total magnetization       =    11.19 Bohr mag/cell
     absolute magnetization    =    11.79 Bohr mag/cell

     iteration # 15     ecut=    90.00 Ry     beta= 0.20
     CG style diagonalization
     ethr =  1.31E-10,  avg # of iterations =  3.0

     total cpu time spent up to now is     3003.4 secs

     total energy              =   -2566.62421722 Ry
     estimated scf accuracy    <       0.00000008 Ry

     total magnetization       =    11.19 Bohr mag/cell
     absolute magnetization    =    11.79 Bohr mag/cell

     iteration # 16     ecut=    90.00 Ry     beta= 0.20
     CG style diagonalization
     ethr =  5.77E-11,  avg # of iterations =  3.0

     total cpu time spent up to now is     3034.9 secs

     total energy              =   -2566.62421723 Ry
     estimated scf accuracy    <       0.00000006 Ry

     total magnetization       =    11.19 Bohr mag/cell
     absolute magnetization    =    11.79 Bohr mag/cell

     iteration # 17     ecut=    90.00 Ry     beta= 0.20
     CG style diagonalization
     ethr =  4.56E-11,  avg # of iterations =  3.0

     total cpu time spent up to now is     3066.5 secs

     total energy              =   -2566.62421723 Ry
     estimated scf accuracy    <          8.6E-09 Ry

     total magnetization       =    11.19 Bohr mag/cell
     absolute magnetization    =    11.79 Bohr mag/cell

     iteration # 18     ecut=    90.00 Ry     beta= 0.20
     CG style diagonalization
     ethr =  6.16E-12,  avg # of iterations =  3.0

     total cpu time spent up to now is     3098.0 secs

     total energy              =   -2566.62421723 Ry
     estimated scf accuracy    <          7.5E-09 Ry

     total magnetization       =    11.19 Bohr mag/cell
     absolute magnetization    =    11.79 Bohr mag/cell

     iteration # 19     ecut=    90.00 Ry     beta= 0.20
     CG style diagonalization
     ethr =  5.34E-12,  avg # of iterations =  3.0

     total cpu time spent up to now is     3129.5 secs

     total energy              =   -2566.62421723 Ry
     estimated scf accuracy    <          6.8E-09 Ry

     total magnetization       =    11.19 Bohr mag/cell
     absolute magnetization    =    11.79 Bohr mag/cell

     iteration # 20     ecut=    90.00 Ry     beta= 0.20
     CG style diagonalization
     ethr =  4.83E-12,  avg # of iterations =  3.0

     total cpu time spent up to now is     3161.0 secs

     total energy              =   -2566.62421723 Ry
     estimated scf accuracy    <          1.2E-09 Ry

     total magnetization       =    11.19 Bohr mag/cell
     absolute magnetization    =    11.79 Bohr mag/cell

     iteration # 21     ecut=    90.00 Ry     beta= 0.20
     CG style diagonalization
     ethr =  8.41E-13,  avg # of iterations =  3.0

     total cpu time spent up to now is     3192.9 secs

     total energy              =   -2566.62421723 Ry
     estimated scf accuracy    <          5.0E-09 Ry

     total magnetization       =    11.19 Bohr mag/cell
     absolute magnetization    =    11.79 Bohr mag/cell

     iteration # 22     ecut=    90.00 Ry     beta= 0.20
     CG style diagonalization
     ethr =  8.41E-13,  avg # of iterations =  3.0

     total cpu time spent up to now is     3224.5 secs

     total energy              =   -2566.62421723 Ry
     estimated scf accuracy    <          2.9E-10 Ry

     total magnetization       =    11.19 Bohr mag/cell
     absolute magnetization    =    11.79 Bohr mag/cell

     iteration # 23     ecut=    90.00 Ry     beta= 0.20
     CG style diagonalization
     ethr =  2.08E-13,  avg # of iterations =  3.0

     total cpu time spent up to now is     3256.0 secs

     total energy              =   -2566.62421723 Ry
     estimated scf accuracy    <          1.1E-09 Ry

     total magnetization       =    11.19 Bohr mag/cell
     absolute magnetization    =    11.79 Bohr mag/cell

     iteration # 24     ecut=    90.00 Ry     beta= 0.20
     CG style diagonalization
     ethr =  2.08E-13,  avg # of iterations =  3.0

     total cpu time spent up to now is     3287.4 secs

     total energy              =   -2566.62421723 Ry
     estimated scf accuracy    <          3.6E-10 Ry

     total magnetization       =    11.19 Bohr mag/cell
     absolute magnetization    =    11.79 Bohr mag/cell

     iteration # 25     ecut=    90.00 Ry     beta= 0.20
     CG style diagonalization
     ethr =  2.08E-13,  avg # of iterations =  3.0

     total cpu time spent up to now is     3318.9 secs

     total energy              =   -2566.62421723 Ry
     estimated scf accuracy    <          1.7E-10 Ry

     total magnetization       =    11.19 Bohr mag/cell
     absolute magnetization    =    11.79 Bohr mag/cell

     iteration # 26     ecut=    90.00 Ry     beta= 0.20
     CG style diagonalization
     ethr =  1.19E-13,  avg # of iterations =  3.0

     total cpu time spent up to now is     3350.4 secs

     total energy              =   -2566.62421723 Ry
     estimated scf accuracy    <          2.3E-10 Ry

     total magnetization       =    11.19 Bohr mag/cell
     absolute magnetization    =    11.79 Bohr mag/cell

     iteration # 27     ecut=    90.00 Ry     beta= 0.20
     CG style diagonalization
     ethr =  1.19E-13,  avg # of iterations =  3.0

     total cpu time spent up to now is     3382.0 secs

     total energy              =   -2566.62421723 Ry
     estimated scf accuracy    <          2.3E-10 Ry

     total magnetization       =    11.19 Bohr mag/cell
     absolute magnetization    =    11.79 Bohr mag/cell

     iteration # 28     ecut=    90.00 Ry     beta= 0.20
     CG style diagonalization
     ethr =  1.19E-13,  avg # of iterations =  3.0

     Magnetic moment per site:
     atom:    1    charge:   16.3303    magn:    0.8880    constr:    0.0000
     atom:    2    charge:   15.1468    magn:    1.9462    constr:    0.0000
     atom:    3    charge:   16.3301    magn:    0.8880    constr:    0.0000
     atom:    4    charge:   15.1471    magn:    1.9459    constr:    0.0000
     atom:    5    charge:   16.3302    magn:    0.8880    constr:    0.0000
     atom:    6    charge:   15.1470    magn:    1.9460    constr:    0.0000
     atom:    7    charge:   16.3302    magn:    0.8880    constr:    0.0000
     atom:    8    charge:   15.1470    magn:    1.9460    constr:    0.0000

     total cpu time spent up to now is     3413.6 secs

     End of self-consistent calculation

     Number of k-points >= 100: set verbosity='high' to print the bands.

     the Fermi energy is    15.9804 ev

!    total energy              =   -2566.62421723 Ry
     estimated scf accuracy    <          1.5E-11 Ry
     smearing contrib. (-TS)   =      -0.01230580 Ry
     internal energy E=F+TS    =   -2566.61191144 Ry

     total magnetization       =    11.19 Bohr mag/cell
     absolute magnetization    =    11.79 Bohr mag/cell

     convergence has been achieved in  28 iterations

     Forces acting on atoms (cartesian axes, Ry/au):

     atom    1 type  1   force =     0.00283239   -0.00010500    0.00383131
     atom    2 type  2   force =     0.00001120    0.00179992   -0.00248669
     atom    3 type  1   force =    -0.00011923    0.00091047   -0.00216462
     atom    4 type  2   force =    -0.00441748   -0.00180587    0.00245780
     atom    5 type  1   force =    -0.00175805    0.00012289    0.00091473
     atom    6 type  2   force =     0.00106426   -0.00092750   -0.00369666
     atom    7 type  1   force =    -0.00095116   -0.00092777   -0.00257937
     atom    8 type  2   force =     0.00333808    0.00093286    0.00372350

     Total force =     0.010972     Total SCF correction =     0.000012


     Computing stress (Cartesian axis) and pressure

          total   stress  (Ry/bohr**3)                   (kbar)     P=       84.78
   0.00057652   0.00000000   0.00000002           84.81        0.00        0.00
   0.00000000   0.00057606  -0.00000003            0.00       84.74       -0.00
   0.00000002  -0.00000003   0.00057637            0.00       -0.00       84.79


     Entering Dynamics;  it =     3   time =  0.00194 pico-seconds

  new lattice vectors (alat unit) :
   1.000357670  -0.000011576  -0.000000888
  -0.000011576   1.000339195   0.000010550
  -0.000000888   0.000010550   1.000362416
  new unit-cell volume =    660.6874 (a.u.)^3
  new positions in cryst coord
Ni      -0.004382724   0.500779177  -0.001963702
Co       0.500197948  -0.000203440   0.499069912
Ni       0.000952831  -0.000008706   0.503589614
Co       0.500646614   0.498718169  -0.002155622
Ni       0.503419753  -0.002364017  -0.002500622
Co      -0.000956503   0.501149482   0.503063243
Ni       0.500010144   0.501593547   0.500874712
Co       0.000111936   0.000335788   0.000022465
  new positions in cart coord (alat unit)
Ni      -0.004390087   0.500949069  -0.001959126
Co       0.500376413  -0.000204034   0.499250336
Ni       0.000952724  -0.000003407   0.503772123
Co       0.500819909   0.498881514  -0.002151586
Ni       0.503599841  -0.002370673  -0.002502000
Co      -0.000963093   0.501324788   0.503250849
Ni       0.500182731   0.501763181   0.501061084
Co       0.000111973   0.000335901   0.000022477

     Ekin =     0.05131747 Ry    T =  600.2 K  Etot =    -2566.57289527
     new unit-cell volume =    660.68742 a.u.^3 (    97.90377 Ang^3 )
     density =      7.98019 g/cm^3

CELL_PARAMETERS (angstrom)
   4.608947894  -0.000053333  -0.000004093
  -0.000053333   4.608862772   0.000048608
  -0.000004093   0.000048608   4.608969761

ATOMIC_POSITIONS (angstrom)
Ni           -0.0202264461        2.3080226448       -0.0090262835
Co            2.3053842479       -0.0009400450        2.3001960743
Ni            0.0043894873       -0.0000156967        2.3210293001
Co            2.3074275683        2.2984967983       -0.0099130038
Ni            2.3202355482       -0.0109224014       -0.0115274663
Co           -0.0044372583        2.3097536970        2.3186276377
Ni            2.3044918978        2.3117735031        2.3085387342
Co            0.0005158911        0.0015475945        0.0001035585



     Writing output data file ./pwscf.save/
     NEW-OLD atomic charge density approx. for the potential

     Check: negative core charge=   -0.000012
     extrapolated charge  140.07214, renormalised to  140.00000
     Generating pointlists ...

     total cpu time spent up to now is     3434.9 secs

     Self-consistent Calculation

     iteration #  1     ecut=    90.00 Ry     beta= 0.20
     CG style diagonalization
     c_bands:  1 eigenvalues not converged
     c_bands:  3 eigenvalues not converged
     c_bands:  1 eigenvalues not converged
     c_bands:  1 eigenvalues not converged
     c_bands:  3 eigenvalues not converged
     c_bands:  1 eigenvalues not converged
     c_bands:  3 eigenvalues not converged
     c_bands:  1 eigenvalues not converged
     c_bands:  3 eigenvalues not converged
     c_bands:  1 eigenvalues not converged
     c_bands:  2 eigenvalues not converged
     c_bands:  3 eigenvalues not converged
     c_bands:  3 eigenvalues not converged
     c_bands:  1 eigenvalues not converged
     c_bands:  2 eigenvalues not converged
     c_bands:  2 eigenvalues not converged
     c_bands:  1 eigenvalues not converged
     c_bands:  1 eigenvalues not converged
     c_bands:  1 eigenvalues not converged
     c_bands:  2 eigenvalues not converged
     c_bands:  1 eigenvalues not converged
     c_bands:  3 eigenvalues not converged
     c_bands:  3 eigenvalues not converged
     c_bands:  3 eigenvalues not converged
     c_bands:  1 eigenvalues not converged
     c_bands:  2 eigenvalues not converged
     c_bands:  2 eigenvalues not converged
     c_bands:  2 eigenvalues not converged
     c_bands:  1 eigenvalues not converged
     c_bands:  3 eigenvalues not converged
     c_bands:  3 eigenvalues not converged
     c_bands:  1 eigenvalues not converged
     c_bands:  1 eigenvalues not converged
     c_bands:  1 eigenvalues not converged
     c_bands:  1 eigenvalues not converged
     c_bands:  1 eigenvalues not converged
     c_bands:  2 eigenvalues not converged
     c_bands:  1 eigenvalues not converged
     c_bands:  1 eigenvalues not converged
     c_bands:  3 eigenvalues not converged
     c_bands:  1 eigenvalues not converged
     c_bands:  3 eigenvalues not converged
     c_bands:  2 eigenvalues not converged
     c_bands:  1 eigenvalues not converged
     c_bands:  1 eigenvalues not converged
     c_bands:  2 eigenvalues not converged
     c_bands:  1 eigenvalues not converged
     c_bands:  2 eigenvalues not converged
     c_bands:  4 eigenvalues not converged
     c_bands:  2 eigenvalues not converged
     c_bands:  2 eigenvalues not converged
     c_bands:  1 eigenvalues not converged
     c_bands:  3 eigenvalues not converged
     c_bands:  1 eigenvalues not converged
     c_bands:  1 eigenvalues not converged
     c_bands:  2 eigenvalues not converged
     c_bands:  2 eigenvalues not converged
     c_bands:  2 eigenvalues not converged
     c_bands:  1 eigenvalues not converged
     c_bands:  2 eigenvalues not converged
     c_bands:  1 eigenvalues not converged
     c_bands:  3 eigenvalues not converged
     c_bands:  1 eigenvalues not converged
     c_bands:  1 eigenvalues not converged
     c_bands:  2 eigenvalues not converged
     c_bands:  2 eigenvalues not converged
     c_bands:  1 eigenvalues not converged
     c_bands:  1 eigenvalues not converged
     c_bands:  1 eigenvalues not converged
     c_bands:  1 eigenvalues not converged
     c_bands:  2 eigenvalues not converged
     c_bands:  1 eigenvalues not converged
     c_bands:  1 eigenvalues not converged
     c_bands:  1 eigenvalues not converged
     c_bands:  1 eigenvalues not converged
     c_bands:  1 eigenvalues not converged
     c_bands:  1 eigenvalues not converged
     c_bands:  2 eigenvalues not converged
     c_bands:  2 eigenvalues not converged
     c_bands:  3 eigenvalues not converged
     c_bands:  1 eigenvalues not converged
     c_bands:  1 eigenvalues not converged
     ethr =  1.00E-06,  avg # of iterations =  7.2

     total cpu time spent up to now is     3509.0 secs

     total energy              =   -2566.62154967 Ry
     estimated scf accuracy    <       0.00601302 Ry

     total magnetization       =    11.31 Bohr mag/cell
     absolute magnetization    =    11.88 Bohr mag/cell

     iteration #  2     ecut=    90.00 Ry     beta= 0.20
     CG style diagonalization
     ethr =  4.30E-06,  avg # of iterations =  3.6

     total cpu time spent up to now is     3546.3 secs

     total energy              =   -2566.62390497 Ry
     estimated scf accuracy    <       0.00663666 Ry

     total magnetization       =    11.13 Bohr mag/cell
     absolute magnetization    =    11.75 Bohr mag/cell

     iteration #  3     ecut=    90.00 Ry     beta= 0.20
     CG style diagonalization
     ethr =  4.30E-06,  avg # of iterations =  3.0

     total cpu time spent up to now is     3577.7 secs

     total energy              =   -2566.62414400 Ry
     estimated scf accuracy    <       0.00409313 Ry

     total magnetization       =    11.12 Bohr mag/cell
     absolute magnetization    =    11.73 Bohr mag/cell

     iteration #  4     ecut=    90.00 Ry     beta= 0.20
     CG style diagonalization
     ethr =  2.92E-06,  avg # of iterations =  3.0

     total cpu time spent up to now is     3609.1 secs

     total energy              =   -2566.62422935 Ry
     estimated scf accuracy    <       0.00223329 Ry

     total magnetization       =    11.16 Bohr mag/cell
     absolute magnetization    =    11.77 Bohr mag/cell

     iteration #  5     ecut=    90.00 Ry     beta= 0.20
     CG style diagonalization
     ethr =  1.60E-06,  avg # of iterations =  3.0

     total cpu time spent up to now is     3640.5 secs

     total energy              =   -2566.62408098 Ry
     estimated scf accuracy    <       0.00111665 Ry

     total magnetization       =    11.17 Bohr mag/cell
     absolute magnetization    =    11.78 Bohr mag/cell

     iteration #  6     ecut=    90.00 Ry     beta= 0.20
     CG style diagonalization
     ethr =  7.98E-07,  avg # of iterations =  3.2

     total cpu time spent up to now is     3673.7 secs

     total energy              =   -2566.62421235 Ry
     estimated scf accuracy    <       0.00007065 Ry

     total magnetization       =    11.20 Bohr mag/cell
     absolute magnetization    =    11.80 Bohr mag/cell

     iteration #  7     ecut=    90.00 Ry     beta= 0.20
     CG style diagonalization
     ethr =  5.05E-08,  avg # of iterations =  3.2

[...]

     total energy              =   -2566.79797628 Ry
     estimated scf accuracy    <       0.00003972 Ry

     total magnetization       =    10.37 Bohr mag/cell
     absolute magnetization    =    11.30 Bohr mag/cell

     iteration # 10     ecut=    90.00 Ry     beta= 0.20
     CG style diagonalization
     ethr =  2.84E-08,  avg # of iterations =  4.8

     total cpu time spent up to now is   136857.2 secs

     total energy              =   -2566.79781298 Ry
     estimated scf accuracy    <       0.00130724 Ry

     total magnetization       =    10.35 Bohr mag/cell
     absolute magnetization    =    11.29 Bohr mag/cell

     iteration # 11     ecut=    90.00 Ry     beta= 0.20
     CG style diagonalization
     ethr =  2.84E-08,  avg # of iterations =  4.3

     total cpu time spent up to now is   136901.2 secs

     total energy              =   -2566.79797338 Ry
     estimated scf accuracy    <       0.00002197 Ry

     total magnetization       =    10.37 Bohr mag/cell
     absolute magnetization    =    11.30 Bohr mag/cell

     iteration # 12     ecut=    90.00 Ry     beta= 0.20
     CG style diagonalization
     ethr =  1.57E-08,  avg # of iterations =  3.0

     total cpu time spent up to now is   136932.4 secs

     total energy              =   -2566.79797426 Ry
     estimated scf accuracy    <       0.00000954 Ry

     total magnetization       =    10.36 Bohr mag/cell
     absolute magnetization    =    11.30 Bohr mag/cell

     iteration # 13     ecut=    90.00 Ry     beta= 0.20
     CG style diagonalization
     ethr =  6.81E-09,  avg # of iterations =  3.0

     total cpu time spent up to now is   136963.5 secs

     total energy              =   -2566.79797497 Ry
     estimated scf accuracy    <       0.00000097 Ry

     total magnetization       =    10.37 Bohr mag/cell
     absolute magnetization    =    11.30 Bohr mag/cell

     iteration # 14     ecut=    90.00 Ry     beta= 0.20
     CG style diagonalization
     ethr =  6.90E-10,  avg # of iterations =  3.0

     total cpu time spent up to now is   136994.9 secs

     total energy              =   -2566.79797504 Ry
     estimated scf accuracy    <       0.00000069 Ry

     total magnetization       =    10.37 Bohr mag/cell
     absolute magnetization    =    11.30 Bohr mag/cell

     iteration # 15     ecut=    90.00 Ry     beta= 0.20
     CG style diagonalization
     ethr =  4.95E-10,  avg # of iterations =  3.0

     total cpu time spent up to now is   137026.0 secs

     total energy              =   -2566.79797502 Ry
     estimated scf accuracy    <       0.00000056 Ry

     total magnetization       =    10.37 Bohr mag/cell
     absolute magnetization    =    11.30 Bohr mag/cell

     iteration # 16     ecut=    90.00 Ry     beta= 0.20
     CG style diagonalization
     ethr =  4.03E-10,  avg # of iterations =  3.0

     total cpu time spent up to now is   137057.1 secs

     total energy              =   -2566.79797507 Ry
     estimated scf accuracy    <       0.00000067 Ry

     total magnetization       =    10.37 Bohr mag/cell
     absolute magnetization    =    11.30 Bohr mag/cell

     iteration # 17     ecut=    90.00 Ry     beta= 0.20
     CG style diagonalization
     ethr =  4.03E-10,  avg # of iterations =  3.0

     total cpu time spent up to now is   137088.3 secs

     total energy              =   -2566.79797509 Ry
     estimated scf accuracy    <       0.00000022 Ry

     total magnetization       =    10.37 Bohr mag/cell
     absolute magnetization    =    11.30 Bohr mag/cell

     iteration # 18     ecut=    90.00 Ry     beta= 0.20
     CG style diagonalization
     ethr =  1.56E-10,  avg # of iterations =  3.0

     total cpu time spent up to now is   137119.4 secs

     total energy              =   -2566.79797512 Ry
     estimated scf accuracy    <       0.00000012 Ry

     total magnetization       =    10.37 Bohr mag/cell
     absolute magnetization    =    11.30 Bohr mag/cell

     iteration # 19     ecut=    90.00 Ry     beta= 0.20
     CG style diagonalization
     ethr =  8.31E-11,  avg # of iterations =  3.0

     total cpu time spent up to now is   137150.6 secs

     total energy              =   -2566.79797511 Ry
     estimated scf accuracy    <       0.00000022 Ry

     total magnetization       =    10.37 Bohr mag/cell
     absolute magnetization    =    11.30 Bohr mag/cell

     iteration # 20     ecut=    90.00 Ry     beta= 0.20
     CG style diagonalization
     ethr =  8.31E-11,  avg # of iterations =  3.0

     total cpu time spent up to now is   137181.7 secs

     total energy              =   -2566.79797513 Ry
     estimated scf accuracy    <       0.00000005 Ry

     total magnetization       =    10.37 Bohr mag/cell
     absolute magnetization    =    11.30 Bohr mag/cell

     iteration # 21     ecut=    90.00 Ry     beta= 0.20
     CG style diagonalization
     ethr =  3.84E-11,  avg # of iterations =  3.0

     total cpu time spent up to now is   137212.8 secs

     total energy              =   -2566.79797513 Ry
     estimated scf accuracy    <       0.00000007 Ry

     total magnetization       =    10.37 Bohr mag/cell
     absolute magnetization    =    11.30 Bohr mag/cell

     iteration # 22     ecut=    90.00 Ry     beta= 0.20
     CG style diagonalization
     ethr =  3.84E-11,  avg # of iterations =  3.0

     total cpu time spent up to now is   137244.0 secs

     total energy              =   -2566.79797513 Ry
     estimated scf accuracy    <       0.00000005 Ry

     total magnetization       =    10.37 Bohr mag/cell
     absolute magnetization    =    11.30 Bohr mag/cell

     iteration # 23     ecut=    90.00 Ry     beta= 0.20
     CG style diagonalization
     ethr =  3.38E-11,  avg # of iterations =  3.0

     total cpu time spent up to now is   137275.1 secs

     total energy              =   -2566.79797513 Ry
     estimated scf accuracy    <       0.00000007 Ry

     total magnetization       =    10.37 Bohr mag/cell
     absolute magnetization    =    11.30 Bohr mag/cell

     iteration # 24     ecut=    90.00 Ry     beta= 0.20
     CG style diagonalization
     ethr =  3.38E-11,  avg # of iterations =  3.0

     total cpu time spent up to now is   137306.3 secs

     total energy              =   -2566.79797514 Ry
     estimated scf accuracy    <          8.1E-09 Ry

     total magnetization       =    10.37 Bohr mag/cell
     absolute magnetization    =    11.30 Bohr mag/cell

     iteration # 25     ecut=    90.00 Ry     beta= 0.20
     CG style diagonalization
     ethr =  5.80E-12,  avg # of iterations =  3.0

     total cpu time spent up to now is   137337.4 secs

     total energy              =   -2566.79797514 Ry
     estimated scf accuracy    <          6.4E-09 Ry

     total magnetization       =    10.37 Bohr mag/cell
     absolute magnetization    =    11.30 Bohr mag/cell

     iteration # 26     ecut=    90.00 Ry     beta= 0.20
     CG style diagonalization
     ethr =  4.56E-12,  avg # of iterations =  3.0

     total cpu time spent up to now is   137368.5 secs

     total energy              =   -2566.79797514 Ry
     estimated scf accuracy    <       0.00000002 Ry

     total magnetization       =    10.37 Bohr mag/cell
     absolute magnetization    =    11.30 Bohr mag/cell

     iteration # 27     ecut=    90.00 Ry     beta= 0.20
     CG style diagonalization
     ethr =  4.56E-12,  avg # of iterations =  3.0

     total cpu time spent up to now is   137399.7 secs

     total energy              =   -2566.79797514 Ry
     estimated scf accuracy    <          4.1E-09 Ry

     total magnetization       =    10.37 Bohr mag/cell
     absolute magnetization    =    11.30 Bohr mag/cell

     iteration # 28     ecut=    90.00 Ry     beta= 0.20
     CG style diagonalization
     ethr =  2.89E-12,  avg # of iterations =  3.0

     total cpu time spent up to now is   137430.8 secs

     total energy              =   -2566.79797514 Ry
     estimated scf accuracy    <          5.3E-09 Ry

     total magnetization       =    10.37 Bohr mag/cell
     absolute magnetization    =    11.30 Bohr mag/cell

     iteration # 29     ecut=    90.00 Ry     beta= 0.20
     CG style diagonalization
     ethr =  2.89E-12,  avg # of iterations =  3.0

     total cpu time spent up to now is   137461.9 secs

     total energy              =   -2566.79797514 Ry
     estimated scf accuracy    <          1.7E-09 Ry

     total magnetization       =    10.37 Bohr mag/cell
     absolute magnetization    =    11.30 Bohr mag/cell

     iteration # 30     ecut=    90.00 Ry     beta= 0.20
     CG style diagonalization
     ethr =  1.21E-12,  avg # of iterations =  3.0

     total cpu time spent up to now is   137493.1 secs

     total energy              =   -2566.79797514 Ry
     estimated scf accuracy    <          4.4E-09 Ry

     total magnetization       =    10.37 Bohr mag/cell
     absolute magnetization    =    11.30 Bohr mag/cell

     iteration # 31     ecut=    90.00 Ry     beta= 0.20
     CG style diagonalization
     ethr =  1.21E-12,  avg # of iterations =  3.0

     total cpu time spent up to now is   137524.2 secs

     total energy              =   -2566.79797514 Ry
     estimated scf accuracy    <          3.4E-10 Ry

     total magnetization       =    10.37 Bohr mag/cell
     absolute magnetization    =    11.30 Bohr mag/cell

     iteration # 32     ecut=    90.00 Ry     beta= 0.20
     CG style diagonalization
     ethr =  2.45E-13,  avg # of iterations =  3.0

     total cpu time spent up to now is   137555.3 secs

     total energy              =   -2566.79797514 Ry
     estimated scf accuracy    <          1.0E-09 Ry

     total magnetization       =    10.37 Bohr mag/cell
     absolute magnetization    =    11.30 Bohr mag/cell

     iteration # 33     ecut=    90.00 Ry     beta= 0.20
     CG style diagonalization
     ethr =  2.45E-13,  avg # of iterations =  3.0

     total cpu time spent up to now is   137586.5 secs

     total energy              =   -2566.79797514 Ry
     estimated scf accuracy    <          4.9E-10 Ry

     total magnetization       =    10.37 Bohr mag/cell
     absolute magnetization    =    11.30 Bohr mag/cell

     iteration # 34     ecut=    90.00 Ry     beta= 0.20
     CG style diagonalization
     ethr =  2.45E-13,  avg # of iterations =  3.0

     total cpu time spent up to now is   137617.6 secs

     total energy              =   -2566.79797514 Ry
     estimated scf accuracy    <          2.7E-10 Ry

     total magnetization       =    10.37 Bohr mag/cell
     absolute magnetization    =    11.30 Bohr mag/cell

     iteration # 35     ecut=    90.00 Ry     beta= 0.20
     CG style diagonalization
     ethr =  1.95E-13,  avg # of iterations =  3.0

     Magnetic moment per site:
     atom:    1    charge:   16.0499    magn:    0.7879    constr:    0.0000
     atom:    2    charge:   14.8741    magn:    1.8752    constr:    0.0000
     atom:    3    charge:   16.0527    magn:    0.8055    constr:    0.0000
     atom:    4    charge:   14.8731    magn:    1.8557    constr:    0.0000
     atom:    5    charge:   16.0292    magn:    0.7284    constr:    0.0000
     atom:    6    charge:   14.8846    magn:    1.9325    constr:    0.0000
     atom:    7    charge:   16.0566    magn:    0.8324    constr:    0.0000
     atom:    8    charge:   14.8800    magn:    1.8426    constr:    0.0000

     total cpu time spent up to now is   137648.7 secs

     End of self-consistent calculation

     Number of k-points >= 100: set verbosity='high' to print the bands.

     the Fermi energy is    15.9702 ev

!    total energy              =   -2566.79797514 Ry
     estimated scf accuracy    <          9.9E-11 Ry
     smearing contrib. (-TS)   =      -0.00859076 Ry
     internal energy E=F+TS    =   -2566.78938438 Ry

     total magnetization       =    10.37 Bohr mag/cell
     absolute magnetization    =    11.30 Bohr mag/cell

     convergence has been achieved in  35 iterations

     Forces acting on atoms (cartesian axes, Ry/au):

     atom    1 type  1   force =    -0.02208722    0.00469370    0.00069468
     atom    2 type  2   force =     0.01468227    0.02241849   -0.02260473
     atom    3 type  1   force =    -0.00623953   -0.00880802    0.03983559
     atom    4 type  2   force =    -0.01109258   -0.00573973   -0.00738573
     atom    5 type  1   force =     0.00166026   -0.01369282   -0.03040966
     atom    6 type  2   force =     0.00921441   -0.01342034   -0.00924061
     atom    7 type  1   force =     0.01119441    0.02854623    0.00425043
     atom    8 type  2   force =     0.00266798   -0.01399752    0.02486002

     Total force =     0.083055     Total SCF correction =     0.000013


     Computing stress (Cartesian axis) and pressure

          total   stress  (Ry/bohr**3)                   (kbar)     P=       -4.72
  -0.00010701  -0.00002561   0.00003048          -15.74       -3.77        4.48
  -0.00002561   0.00015296  -0.00002013           -3.77       22.50       -2.96
   0.00003048  -0.00002013  -0.00014217            4.48       -2.96      -20.91


     Entering Dynamics;  it =   102   time =  0.09772 pico-seconds

  new lattice vectors (alat unit) :
   0.999437702   0.002759093   0.004006068
   0.002759093   0.988606481   0.005948231
   0.004006068   0.005948231   1.004862624
  new unit-cell volume =    655.2337 (a.u.)^3
  new positions in cryst coord
Ni      -0.085145673   0.529295244   0.015195777
Co       0.506594676   0.043647615   0.415328649
Ni       0.017890280   0.011758957   0.583763692
Co       0.410610187   0.409695986  -0.017161440
Ni       0.581540844  -0.081359302  -0.077379009
Co      -0.005333793   0.511150421   0.512859255
Ni       0.493717179   0.541160697   0.481720327
Co       0.080158889   0.034653867   0.085686191
  new positions in cart coord (alat unit)
Ni      -0.083576545   0.523120171   0.018076939
Co       0.508094082   0.047018528   0.419637315
Ni       0.020251261   0.015146704   0.586743930
Co       0.411440941   0.406058938  -0.013162990
Ni       0.580679382  -0.079288076  -0.075909525
Co      -0.001865932   0.508362508   0.518372170
Ni       0.496862481   0.539222568   0.489259565
Co       0.080552693   0.034989884   0.086630102

     Ekin =     0.06377257 Ry    T =  711.4 K  Etot =    -2566.73419810
     new unit-cell volume =    655.23374 a.u.^3 (    97.09562 Ang^3 )
     density =      8.04661 g/cm^3

CELL_PARAMETERS (angstrom)
   4.604709323   0.012711971   0.018457159
   0.012711971   4.554806639   0.027405285
   0.018457159   0.027405285   4.629703567

ATOMIC_POSITIONS (angstrom)
Ni           -0.3850622157        2.4101715652        0.0832858822
Co            2.3409418626        0.2166284621        1.9333950006
Ni            0.0933036360        0.0697854072        2.7033053066
Co            1.8956318486        1.8708353467       -0.0606458459
Ni            2.6753641148       -0.3653039530       -0.3497379555
Co           -0.0085969103        2.3421785824        2.3882961001
Ni            2.2891945071        2.4843601378        2.2541655953
Co            0.3711304243        0.1612088942        0.3991308695



     Maximum number of iterations reached, stopping

     init_run     :     12.46s CPU     13.13s WALL (       1 calls)
     electrons    : 131537.81s CPU 135547.69s WALL (     102 calls)
     update_pot   :    163.35s CPU    165.76s WALL (     101 calls)
     forces       :    620.28s CPU    648.11s WALL (     102 calls)
     stress       :   1183.63s CPU   1215.40s WALL (     102 calls)

     Called by init_run:
     wfcinit      :     10.59s CPU     10.91s WALL (       1 calls)
     potinit      :      0.50s CPU      0.55s WALL (       1 calls)
     hinit0       :      0.88s CPU      1.01s WALL (       1 calls)

     Called by electrons:
     c_bands      : 115523.71s CPU 117863.29s WALL (    3928 calls)
     sum_band     :  13846.63s CPU  14891.78s WALL (    3928 calls)
     v_of_rho     :    527.73s CPU    624.20s WALL (    4030 calls)
     newd         :   1564.59s CPU   2081.43s WALL (    4030 calls)
     mix_rho      :     67.03s CPU     81.13s WALL (    3928 calls)

     Called by c_bands:
     init_us_2    :    710.18s CPU    730.57s WALL ( 1015686 calls)
     ccgdiagg     :  85039.47s CPU  86748.12s WALL (  505015 calls)
     wfcrot       :  29434.76s CPU  30016.05s WALL (  492289 calls)

     Called by *cgdiagg:
     h_psi        :  63011.72s CPU  64344.26s WALL (97275467 calls)
     s_psi        :  20543.43s CPU  20929.15s WALL (******** calls)

     Called by h_psi:
     h_psi:calbec :  13498.24s CPU  13831.66s WALL (97275467 calls)
     vloc_psi     :  36858.70s CPU  37655.37s WALL (97275467 calls)
     add_vuspsi   :  11934.80s CPU  12139.32s WALL (97275467 calls)
     hs_1psi      :  53910.45s CPU  54998.94s WALL (96783178 calls)
     s_1psi       :  18823.31s CPU  19182.88s WALL (96783178 calls)

     General routines
     calbec       :  27346.96s CPU  28044.82s WALL (******** calls)
     fft          :    207.78s CPU    279.89s WALL (  104727 calls)
     ffts         :      6.98s CPU      7.12s WALL (   15916 calls)
     fftw         :  39192.53s CPU  40047.25s WALL (******** calls)
     interpolate  :     21.10s CPU     28.34s WALL (    8060 calls)

     Parallel routines
     fft_scatt_xy :   3752.47s CPU   3824.72s WALL (******** calls)
     fft_scatt_yz :  16719.32s CPU  17163.42s WALL (******** calls)

     PWSCF        :   1d13h 6m CPU   1d14h14m WALL


   This run was terminated on:   6:22:15   5Mar2022            

=------------------------------------------------------------------------------=
   JOB DONE.
=------------------------------------------------------------------------------=
Note: The following floating-point exceptions are signalling: IEEE_UNDERFLOW_FLAG IEEE_DENORMAL
Note: The following floating-point exceptions are signalling: IEEE_UNDERFLOW_FLAG IEEE_DENORMAL
Note: The following floating-point exceptions are signalling: IEEE_UNDERFLOW_FLAG IEEE_DENORMAL
Note: The following floating-point exceptions are signalling: IEEE_UNDERFLOW_FLAG IEEE_DENORMAL
Note: The following floating-point exceptions are signalling: IEEE_UNDERFLOW_FLAG IEEE_DENORMAL
Note: The following floating-point exceptions are signalling: IEEE_UNDERFLOW_FLAG IEEE_DENORMAL
Note: The following floating-point exceptions are signalling: IEEE_UNDERFLOW_FLAG IEEE_DENORMAL
Note: The following floating-point exceptions are signalling: IEEE_UNDERFLOW_FLAG IEEE_DENORMAL
Note: The following floating-point exceptions are signalling: IEEE_UNDERFLOW_FLAG IEEE_DENORMAL
Note: The following floating-point exceptions are signalling: IEEE_UNDERFLOW_FLAG IEEE_DENORMAL
Note: The following floating-point exceptions are signalling: IEEE_UNDERFLOW_FLAG IEEE_DENORMAL
Note: The following floating-point exceptions are signalling: IEEE_UNDERFLOW_FLAG IEEE_DENORMAL
Note: The following floating-point exceptions are signalling: IEEE_UNDERFLOW_FLAG IEEE_DENORMAL
Note: The following floating-point exceptions are signalling: IEEE_UNDERFLOW_FLAG IEEE_DENORMAL
Note: The following floating-point exceptions are signalling: IEEE_UNDERFLOW_FLAG IEEE_DENORMAL
Note: The following floating-point exceptions are signalling: IEEE_UNDERFLOW_FLAG IEEE_DENORMAL
Note: The following floating-point exceptions are signalling: IEEE_UNDERFLOW_FLAG IEEE_DENORMAL
Note: The following floating-point exceptions are signalling: IEEE_UNDERFLOW_FLAG IEEE_DENORMAL
Note: The following floating-point exceptions are signalling: IEEE_UNDERFLOW_FLAG IEEE_DENORMAL
Note: The following floating-point exceptions are signalling: IEEE_UNDERFLOW_FLAG IEEE_DENORMAL
Note: The following floating-point exceptions are signalling: IEEE_UNDERFLOW_FLAG IEEE_DENORMAL
Note: The following floating-point exceptions are signalling: IEEE_UNDERFLOW_FLAG IEEE_DENORMAL
Note: The following floating-point exceptions are signalling: IEEE_UNDERFLOW_FLAG IEEE_DENORMAL
Note: The following floating-point exceptions are signalling: IEEE_UNDERFLOW_FLAG IEEE_DENORMAL
