 # Co4 Cr4
 
           8  atoms
           2  atom types
 
      0.000000000000       4.429824000000  xlo xhi
      0.000000000000       4.429824000000  ylo yhi
      0.000000000000       4.429824000000  zlo zhi
 
Masses
 
            1   58.93319500             # Co
            2   51.99610000             # Cr
 
Atoms # atomic
 
         1    1        0.000000000000       0.000000000000       0.000000000000
         2    2        2.214912000000       2.214912000000       2.214912000000
         3    1        0.000000000000       2.214912000000       2.214912000000
         4    2        2.214912000000       0.000000000000       0.000000000000
         5    1        2.214912000000       2.214912000000       0.000000000000
         6    2        0.000000000000       0.000000000000       2.214912000000
         7    1        2.214912000000       0.000000000000       2.214912000000
         8    2        0.000000000000       2.214912000000       0.000000000000
