
     Program PWSCF v.6.7MaX starts on 18Mar2022 at 16:48:12 

     This program is part of the open-source Quantum ESPRESSO suite
     for quantum simulation of materials; please cite
         "P. Giannozzi et al., J. Phys.:Condens. Matter 21 395502 (2009);
         "P. Giannozzi et al., J. Phys.:Condens. Matter 29 465901 (2017);
          URL http://www.quantum-espresso.org", 
     in publications or presentations arising from this work. More details at
     http://www.quantum-espresso.org/quote

     Parallel version (MPI), running on    16 processors

     MPI processes distributed on     1 nodes
     R & G space division:  proc/nbgrp/npool/nimage =      16
     Reading input from Ten-5-B1-CoCr.in

     Current dimensions of program PWSCF are:
     Max number of different atomic species (ntypx) = 10
     Max number of k-points (npk) =  40000
     Max angular momentum in pseudopotentials (lmaxx) =  3

     Subspace diagonalization in iterative solution of the eigenvalue problem:
     a serial algorithm will be used

     Found symmetry operation: I + (  0.0000  0.5000 -0.5000)
     This is a supercell, fractional translations are disabled

     Parallelization info
     --------------------
     sticks:   dense  smooth     PW     G-vecs:    dense   smooth      PW
     Min         450     149     42                28734     5525     824
     Max         451     150     43                28736     5528     827
     Sum        7201    2393    673               459751    88423   13205



     bravais-lattice index     =            0
     lattice parameter (alat)  =       9.1559  a.u.
     unit-cell volume          =     767.5563 (a.u.)^3
     number of atoms/cell      =            8
     number of atomic types    =            2
     number of electrons       =       124.00
     number of Kohn-Sham states=           74
     kinetic-energy cutoff     =      90.0000  Ry
     charge density cutoff     =    1080.0000  Ry
     scf convergence threshold =      1.0E-08
     mixing beta               =       0.2000
     number of iterations used =            8  plain     mixing
     Exchange-correlation= SLA  PW   PBE  PBE
                           (   1   4   3   4   0   0   0)

     celldm(1)=   9.155950  celldm(2)=   0.000000  celldm(3)=   0.000000
     celldm(4)=   0.000000  celldm(5)=   0.000000  celldm(6)=   0.000000

     crystal axes: (cart. coord. in units of alat)
               a(1) = (   1.000000   0.000000   0.000000 )  
               a(2) = (   0.000000   1.000000   0.000000 )  
               a(3) = (   0.000000   0.000000   1.000000 )  

     reciprocal axes: (cart. coord. in units 2 pi/alat)
               b(1) = (  1.000000  0.000000  0.000000 )  
               b(2) = (  0.000000  1.000000  0.000000 )  
               b(3) = (  0.000000  0.000000  1.000000 )  


     PseudoPot. # 1 for Cr read from file:
     /opt/QEpot/SSSP_efficiency_pseudos/cr_pbe_v1.5.uspp.F.UPF
     MD5 check sum: 0d52af634a40206e4dee301ad30da4bf
     Pseudo is Ultrasoft + core correction, Zval = 14.0
     Generated by new atomic code, or converted to UPF format
     Using radial grid of  857 points,  6 beta functions with: 
                l(1) =   0
                l(2) =   0
                l(3) =   1
                l(4) =   1
                l(5) =   2
                l(6) =   2
     Q(r) pseudized with  8 coefficients,  rinner =    0.950   0.950   0.950
                                                       0.950   0.950

     PseudoPot. # 2 for Co read from file:
     /opt/QEpot/SSSP_efficiency_pseudos/Co_pbe_v1.2.uspp.F.UPF
     MD5 check sum: 5f91765df6ddd3222702df6e7b74a16d
     Pseudo is Ultrasoft + core correction, Zval = 17.0
     Generated by new atomic code, or converted to UPF format
     Using radial grid of  863 points,  6 beta functions with: 
                l(1) =   0
                l(2) =   0
                l(3) =   1
                l(4) =   1
                l(5) =   2
                l(6) =   2
     Q(r) pseudized with  8 coefficients,  rinner =    1.200   1.200   1.200
                                                       1.200   1.200

     atomic species   valence    mass     pseudopotential
        Cr            14.00    51.99610     Cr( 1.00)
        Co            17.00    58.93300     Co( 1.00)

     Starting magnetic structure 
     atomic species   magnetization
        Cr           0.000
        Co           0.000

     No symmetry found



   Cartesian axes

     site n.     atom                  positions (alat units)
         1           Cr  tau(   1) = (   0.0000000   0.5000000   0.0000000  )
         2           Co  tau(   2) = (   0.5000000   0.0000000   0.5000000  )
         3           Cr  tau(   3) = (   0.0000000   0.0000000   0.5000000  )
         4           Co  tau(   4) = (   0.5000000   0.5000000   0.0000000  )
         5           Cr  tau(   5) = (   0.5000000   0.0000000   0.0000000  )
         6           Co  tau(   6) = (   0.0000000   0.5000000   0.5000000  )
         7           Cr  tau(   7) = (   0.5000000   0.5000000   0.5000000  )
         8           Co  tau(   8) = (   0.0000000   0.0000000   0.0000000  )

     number of k points=   112  Gaussian smearing, width (Ry)=  0.0100

     Number of k-points >= 100: set verbosity='high' to print them.

     Dense  grid:   459751 G-vectors     FFT dimensions: (  96,  96,  96)

     Smooth grid:    88423 G-vectors     FFT dimensions: (  60,  60,  60)

     Estimated max dynamical RAM per process >     293.42 MB

     Estimated total dynamical RAM >       4.58 GB

     Check: negative core charge=   -0.000009
     Generating pointlists ...
     new r_m :   0.2063 (alat units)  1.8884 (a.u.) for type    1
     new r_m :   0.2063 (alat units)  1.8884 (a.u.) for type    2

     Initial potential from superposition of free atoms

     starting charge  115.99991, renormalised to  124.00000

     negative rho (up, down):  1.752E-03 1.752E-03
     Starting wfcs are   92 randomized atomic wfcs

     total cpu time spent up to now is       15.8 secs

     Self-consistent Calculation

     iteration #  1     ecut=    90.00 Ry     beta= 0.20
     Davidson diagonalization with overlap
     ethr =  1.00E-02,  avg # of iterations =  3.3

     negative rho (up, down):  1.182E-03 1.182E-03

     total cpu time spent up to now is       66.9 secs

     total energy              =   -1869.63469809 Ry
     estimated scf accuracy    <     124.85104448 Ry

     total magnetization       =     0.00 Bohr mag/cell
     absolute magnetization    =     0.01 Bohr mag/cell

     iteration #  2     ecut=    90.00 Ry     beta= 0.20
     Davidson diagonalization with overlap
     ethr =  1.00E-02,  avg # of iterations =  5.2

     negative rho (up, down):  1.904E-03 1.904E-03

     total cpu time spent up to now is      126.0 secs

     total energy              =   -1895.82552059 Ry
     estimated scf accuracy    <      70.37961392 Ry

     total magnetization       =    -0.01 Bohr mag/cell
     absolute magnetization    =     0.01 Bohr mag/cell

     iteration #  3     ecut=    90.00 Ry     beta= 0.20
     Davidson diagonalization with overlap
     ethr =  1.00E-02,  avg # of iterations =  2.9

     negative rho (up, down):  4.835E-03 4.836E-03

     total cpu time spent up to now is      165.9 secs

     total energy              =   -1884.67393138 Ry
     estimated scf accuracy    <      27.23590522 Ry

     total magnetization       =    -0.01 Bohr mag/cell
     absolute magnetization    =     0.01 Bohr mag/cell

     iteration #  4     ecut=    90.00 Ry     beta= 0.20
     Davidson diagonalization with overlap
     ethr =  1.00E-02,  avg # of iterations =  5.8

     negative rho (up, down):  1.849E-03 1.849E-03

     total cpu time spent up to now is      227.6 secs

     total energy              =   -1882.16582126 Ry
     estimated scf accuracy    <     198.14930388 Ry

     total magnetization       =     0.00 Bohr mag/cell
     absolute magnetization    =     0.02 Bohr mag/cell

     iteration #  5     ecut=    90.00 Ry     beta= 0.20
     Davidson diagonalization with overlap
     ethr =  1.00E-02,  avg # of iterations =  6.4

     negative rho (up, down):  1.833E-03 1.835E-03

     total cpu time spent up to now is      284.6 secs

     total energy              =   -1895.34773843 Ry
     estimated scf accuracy    <       9.61092269 Ry

     total magnetization       =     0.02 Bohr mag/cell
     absolute magnetization    =     0.04 Bohr mag/cell

     iteration #  6     ecut=    90.00 Ry     beta= 0.20
     Davidson diagonalization with overlap
     ethr =  7.75E-03,  avg # of iterations =  1.1

     negative rho (up, down):  1.820E-03 1.823E-03

     total cpu time spent up to now is      315.8 secs

     total energy              =   -1895.42192606 Ry
     estimated scf accuracy    <       4.34122350 Ry

     total magnetization       =    -0.00 Bohr mag/cell
     absolute magnetization    =     0.03 Bohr mag/cell

     iteration #  7     ecut=    90.00 Ry     beta= 0.20
     Davidson diagonalization with overlap
     ethr =  3.50E-03,  avg # of iterations =  1.3

     negative rho (up, down):  1.815E-03 1.818E-03

     total cpu time spent up to now is      347.4 secs

     total energy              =   -1895.31513390 Ry
     estimated scf accuracy    <       3.91832962 Ry

     total magnetization       =    -0.01 Bohr mag/cell
     absolute magnetization    =     0.04 Bohr mag/cell

     iteration #  8     ecut=    90.00 Ry     beta= 0.20
     Davidson diagonalization with overlap
     ethr =  3.16E-03,  avg # of iterations =  1.0

     negative rho (up, down):  1.749E-03 1.752E-03

     total cpu time spent up to now is      378.4 secs

     total energy              =   -1894.95985105 Ry
     estimated scf accuracy    <       2.08687451 Ry

     total magnetization       =    -0.02 Bohr mag/cell
     absolute magnetization    =     0.04 Bohr mag/cell

     iteration #  9     ecut=    90.00 Ry     beta= 0.20
     Davidson diagonalization with overlap
     ethr =  1.68E-03,  avg # of iterations =  2.9

     negative rho (up, down):  1.710E-03 1.714E-03

     total cpu time spent up to now is      416.5 secs

     total energy              =   -1894.97128927 Ry
     estimated scf accuracy    <       4.69040403 Ry

     total magnetization       =    -0.03 Bohr mag/cell
     absolute magnetization    =     0.08 Bohr mag/cell

     iteration # 10     ecut=    90.00 Ry     beta= 0.20
     Davidson diagonalization with overlap
     ethr =  1.68E-03,  avg # of iterations =  1.8

     negative rho (up, down):  1.680E-03 1.684E-03

     total cpu time spent up to now is      449.4 secs

     total energy              =   -1895.41059682 Ry
     estimated scf accuracy    <       0.63800616 Ry

     total magnetization       =    -0.01 Bohr mag/cell
     absolute magnetization    =     0.04 Bohr mag/cell

     iteration # 11     ecut=    90.00 Ry     beta= 0.20
     Davidson diagonalization with overlap
     ethr =  5.15E-04,  avg # of iterations =  3.7

     negative rho (up, down):  1.702E-03 1.705E-03

     total cpu time spent up to now is      489.3 secs

     total energy              =   -1895.18570815 Ry
     estimated scf accuracy    <       3.83758628 Ry

     total magnetization       =    -0.00 Bohr mag/cell
     absolute magnetization    =     0.01 Bohr mag/cell

     iteration # 12     ecut=    90.00 Ry     beta= 0.20
     Davidson diagonalization with overlap
     ethr =  5.15E-04,  avg # of iterations =  2.0

     negative rho (up, down):  1.689E-03 1.692E-03

     total cpu time spent up to now is      523.8 secs

     total energy              =   -1895.32846568 Ry
     estimated scf accuracy    <       0.17587677 Ry

     total magnetization       =    -0.01 Bohr mag/cell
     absolute magnetization    =     0.03 Bohr mag/cell

     iteration # 13     ecut=    90.00 Ry     beta= 0.20
     Davidson diagonalization with overlap
     ethr =  1.42E-04,  avg # of iterations =  1.8

     negative rho (up, down):  1.637E-03 1.640E-03

     total cpu time spent up to now is      557.2 secs

     total energy              =   -1895.27410294 Ry
     estimated scf accuracy    <       0.84663683 Ry

     total magnetization       =    -0.01 Bohr mag/cell
     absolute magnetization    =     0.03 Bohr mag/cell

     iteration # 14     ecut=    90.00 Ry     beta= 0.20
     Davidson diagonalization with overlap
     ethr =  1.42E-04,  avg # of iterations =  5.3

     negative rho (up, down):  1.633E-03 1.636E-03

     total cpu time spent up to now is      598.8 secs

     total energy              =   -1895.30637625 Ry
     estimated scf accuracy    <       0.00785928 Ry

     total magnetization       =    -0.02 Bohr mag/cell
     absolute magnetization    =     0.04 Bohr mag/cell

     iteration # 15     ecut=    90.00 Ry     beta= 0.20
     Davidson diagonalization with overlap
     ethr =  6.34E-06,  avg # of iterations =  6.9

     negative rho (up, down):  1.630E-03 1.632E-03

     total cpu time spent up to now is      652.6 secs

     total energy              =   -1895.30872134 Ry
     estimated scf accuracy    <       0.01342270 Ry

     total magnetization       =    -0.02 Bohr mag/cell
     absolute magnetization    =     0.04 Bohr mag/cell

     iteration # 16     ecut=    90.00 Ry     beta= 0.20
     Davidson diagonalization with overlap
     ethr =  6.34E-06,  avg # of iterations =  1.1

     negative rho (up, down):  1.627E-03 1.629E-03

     total cpu time spent up to now is      683.4 secs

     total energy              =   -1895.30854950 Ry
     estimated scf accuracy    <       0.00383958 Ry

     total magnetization       =    -0.02 Bohr mag/cell
     absolute magnetization    =     0.04 Bohr mag/cell

     iteration # 17     ecut=    90.00 Ry     beta= 0.20
     Davidson diagonalization with overlap
     ethr =  3.10E-06,  avg # of iterations =  1.9

     negative rho (up, down):  1.627E-03 1.629E-03

     total cpu time spent up to now is      717.1 secs

     total energy              =   -1895.30872653 Ry
     estimated scf accuracy    <       0.00112551 Ry

     total magnetization       =    -0.02 Bohr mag/cell
     absolute magnetization    =     0.04 Bohr mag/cell

     iteration # 18     ecut=    90.00 Ry     beta= 0.20
     Davidson diagonalization with overlap
     ethr =  9.08E-07,  avg # of iterations =  2.1

     negative rho (up, down):  1.628E-03 1.629E-03

     total cpu time spent up to now is      752.1 secs

     total energy              =   -1895.30875017 Ry
     estimated scf accuracy    <       0.00073392 Ry

     total magnetization       =    -0.02 Bohr mag/cell
     absolute magnetization    =     0.04 Bohr mag/cell

     iteration # 19     ecut=    90.00 Ry     beta= 0.20
     Davidson diagonalization with overlap
     ethr =  5.92E-07,  avg # of iterations =  1.4

     negative rho (up, down):  1.625E-03 1.625E-03

     total cpu time spent up to now is      783.7 secs

     total energy              =   -1895.30874174 Ry
     estimated scf accuracy    <       0.00036961 Ry

     total magnetization       =    -0.02 Bohr mag/cell
     absolute magnetization    =     0.04 Bohr mag/cell

     iteration # 20     ecut=    90.00 Ry     beta= 0.20
     Davidson diagonalization with overlap
     ethr =  2.98E-07,  avg # of iterations =  2.5

     negative rho (up, down):  1.624E-03 1.624E-03

     total cpu time spent up to now is      818.3 secs

     total energy              =   -1895.30873057 Ry
     estimated scf accuracy    <       0.00100682 Ry

     total magnetization       =    -0.02 Bohr mag/cell
     absolute magnetization    =     0.04 Bohr mag/cell

     iteration # 21     ecut=    90.00 Ry     beta= 0.20
     Davidson diagonalization with overlap
     ethr =  2.98E-07,  avg # of iterations =  1.2

     negative rho (up, down):  1.622E-03 1.622E-03

     total cpu time spent up to now is      849.5 secs

     total energy              =   -1895.30875895 Ry
     estimated scf accuracy    <       0.00053148 Ry

     total magnetization       =    -0.02 Bohr mag/cell
     absolute magnetization    =     0.04 Bohr mag/cell

     iteration # 22     ecut=    90.00 Ry     beta= 0.20
     Davidson diagonalization with overlap
     ethr =  2.98E-07,  avg # of iterations =  1.1

     negative rho (up, down):  1.617E-03 1.616E-03

     total cpu time spent up to now is      880.4 secs

     total energy              =   -1895.30876456 Ry
     estimated scf accuracy    <       0.00036752 Ry

     total magnetization       =    -0.02 Bohr mag/cell
     absolute magnetization    =     0.04 Bohr mag/cell

     iteration # 23     ecut=    90.00 Ry     beta= 0.20
     Davidson diagonalization with overlap
     ethr =  2.96E-07,  avg # of iterations =  1.1

     negative rho (up, down):  1.615E-03 1.614E-03

     total cpu time spent up to now is      911.1 secs

     total energy              =   -1895.30876851 Ry
     estimated scf accuracy    <       0.00022063 Ry

     total magnetization       =    -0.02 Bohr mag/cell
     absolute magnetization    =     0.04 Bohr mag/cell

     iteration # 24     ecut=    90.00 Ry     beta= 0.20
     Davidson diagonalization with overlap
     ethr =  1.78E-07,  avg # of iterations =  1.1

     negative rho (up, down):  1.612E-03 1.608E-03

     total cpu time spent up to now is      942.1 secs

     total energy              =   -1895.30877425 Ry
     estimated scf accuracy    <       0.00002189 Ry

     total magnetization       =    -0.02 Bohr mag/cell
     absolute magnetization    =     0.04 Bohr mag/cell

     iteration # 25     ecut=    90.00 Ry     beta= 0.20
     Davidson diagonalization with overlap
     ethr =  1.77E-08,  avg # of iterations =  5.8

     negative rho (up, down):  1.611E-03 1.607E-03

     total cpu time spent up to now is      983.7 secs

     total energy              =   -1895.30877626 Ry
     estimated scf accuracy    <       0.00000963 Ry

     total magnetization       =    -0.02 Bohr mag/cell
     absolute magnetization    =     0.04 Bohr mag/cell

     iteration # 26     ecut=    90.00 Ry     beta= 0.20
     Davidson diagonalization with overlap
     ethr =  7.77E-09,  avg # of iterations =  1.4

     negative rho (up, down):  1.611E-03 1.606E-03

     total cpu time spent up to now is     1015.3 secs

     total energy              =   -1895.30877676 Ry
     estimated scf accuracy    <       0.00000101 Ry

     total magnetization       =    -0.02 Bohr mag/cell
     absolute magnetization    =     0.04 Bohr mag/cell

     iteration # 27     ecut=    90.00 Ry     beta= 0.20
     Davidson diagonalization with overlap
     ethr =  8.16E-10,  avg # of iterations =  5.0

     negative rho (up, down):  1.611E-03 1.605E-03

     total cpu time spent up to now is     1055.5 secs

     total energy              =   -1895.30877688 Ry
     estimated scf accuracy    <       0.00000178 Ry

     total magnetization       =    -0.02 Bohr mag/cell
     absolute magnetization    =     0.04 Bohr mag/cell

     iteration # 28     ecut=    90.00 Ry     beta= 0.20
     Davidson diagonalization with overlap
     ethr =  8.16E-10,  avg # of iterations =  1.3

     negative rho (up, down):  1.611E-03 1.605E-03

     total cpu time spent up to now is     1086.9 secs

     total energy              =   -1895.30877698 Ry
     estimated scf accuracy    <       0.00000076 Ry

     total magnetization       =    -0.03 Bohr mag/cell
     absolute magnetization    =     0.04 Bohr mag/cell

     iteration # 29     ecut=    90.00 Ry     beta= 0.20
     Davidson diagonalization with overlap
     ethr =  6.10E-10,  avg # of iterations =  1.4

     negative rho (up, down):  1.611E-03 1.604E-03

     total cpu time spent up to now is     1118.6 secs

     total energy              =   -1895.30877712 Ry
     estimated scf accuracy    <       0.00000082 Ry

     total magnetization       =    -0.03 Bohr mag/cell
     absolute magnetization    =     0.04 Bohr mag/cell

     iteration # 30     ecut=    90.00 Ry     beta= 0.20
     Davidson diagonalization with overlap
     ethr =  6.10E-10,  avg # of iterations =  1.6

     negative rho (up, down):  1.611E-03 1.604E-03

     total cpu time spent up to now is     1150.6 secs

     total energy              =   -1895.30877714 Ry
     estimated scf accuracy    <       0.00000078 Ry

     total magnetization       =    -0.03 Bohr mag/cell
     absolute magnetization    =     0.04 Bohr mag/cell

     iteration # 31     ecut=    90.00 Ry     beta= 0.20
     Davidson diagonalization with overlap
     ethr =  6.10E-10,  avg # of iterations =  1.2

     negative rho (up, down):  1.611E-03 1.604E-03

     total cpu time spent up to now is     1181.5 secs

     total energy              =   -1895.30877717 Ry
     estimated scf accuracy    <       0.00000100 Ry

     total magnetization       =    -0.03 Bohr mag/cell
     absolute magnetization    =     0.04 Bohr mag/cell

     iteration # 32     ecut=    90.00 Ry     beta= 0.20
     Davidson diagonalization with overlap
     ethr =  6.10E-10,  avg # of iterations =  1.0

     negative rho (up, down):  1.612E-03 1.604E-03

     total cpu time spent up to now is     1212.1 secs

     total energy              =   -1895.30877722 Ry
     estimated scf accuracy    <       0.00000056 Ry

     total magnetization       =    -0.03 Bohr mag/cell
     absolute magnetization    =     0.04 Bohr mag/cell

     iteration # 33     ecut=    90.00 Ry     beta= 0.20
     Davidson diagonalization with overlap
     ethr =  4.52E-10,  avg # of iterations =  1.0

     negative rho (up, down):  1.611E-03 1.604E-03

     total cpu time spent up to now is     1242.7 secs

     total energy              =   -1895.30877717 Ry
     estimated scf accuracy    <       0.00000052 Ry

     total magnetization       =    -0.03 Bohr mag/cell
     absolute magnetization    =     0.05 Bohr mag/cell

     iteration # 34     ecut=    90.00 Ry     beta= 0.20
     Davidson diagonalization with overlap
     ethr =  4.19E-10,  avg # of iterations =  1.0

     negative rho (up, down):  1.610E-03 1.605E-03

     total cpu time spent up to now is     1273.2 secs

     total energy              =   -1895.30877678 Ry
     estimated scf accuracy    <       0.00000075 Ry

     total magnetization       =    -0.03 Bohr mag/cell
     absolute magnetization    =     0.04 Bohr mag/cell

     iteration # 35     ecut=    90.00 Ry     beta= 0.20
     Davidson diagonalization with overlap
     ethr =  4.19E-10,  avg # of iterations =  1.8

     negative rho (up, down):  1.610E-03 1.606E-03

     total cpu time spent up to now is     1305.9 secs

     total energy              =   -1895.30877681 Ry
     estimated scf accuracy    <       0.00000049 Ry

     total magnetization       =    -0.02 Bohr mag/cell
     absolute magnetization    =     0.04 Bohr mag/cell

     iteration # 36     ecut=    90.00 Ry     beta= 0.20
     Davidson diagonalization with overlap
     ethr =  3.97E-10,  avg # of iterations =  1.7

     negative rho (up, down):  1.609E-03 1.606E-03

     total cpu time spent up to now is     1338.3 secs

     total energy              =   -1895.30877669 Ry
     estimated scf accuracy    <       0.00000062 Ry

     total magnetization       =    -0.02 Bohr mag/cell
     absolute magnetization    =     0.04 Bohr mag/cell

     iteration # 37     ecut=    90.00 Ry     beta= 0.20
     Davidson diagonalization with overlap
     ethr =  3.97E-10,  avg # of iterations =  2.3

     negative rho (up, down):  1.609E-03 1.606E-03

     total cpu time spent up to now is     1372.3 secs

     total energy              =   -1895.30877673 Ry
     estimated scf accuracy    <       0.00000040 Ry

     total magnetization       =    -0.02 Bohr mag/cell
     absolute magnetization    =     0.04 Bohr mag/cell

     iteration # 38     ecut=    90.00 Ry     beta= 0.20
     Davidson diagonalization with overlap
     ethr =  3.22E-10,  avg # of iterations =  1.5

     negative rho (up, down):  1.607E-03 1.607E-03

     total cpu time spent up to now is     1404.4 secs

     total energy              =   -1895.30877654 Ry
     estimated scf accuracy    <       0.00000082 Ry

     total magnetization       =    -0.02 Bohr mag/cell
     absolute magnetization    =     0.04 Bohr mag/cell

     iteration # 39     ecut=    90.00 Ry     beta= 0.20
     Davidson diagonalization with overlap
     ethr =  3.22E-10,  avg # of iterations =  3.9

     negative rho (up, down):  1.607E-03 1.607E-03

     total cpu time spent up to now is     1441.9 secs

     total energy              =   -1895.30877658 Ry
     estimated scf accuracy    <       0.00000087 Ry

     total magnetization       =    -0.02 Bohr mag/cell
     absolute magnetization    =     0.04 Bohr mag/cell

     iteration # 40     ecut=    90.00 Ry     beta= 0.20
     Davidson diagonalization with overlap
     ethr =  3.22E-10,  avg # of iterations =  2.0

     negative rho (up, down):  1.606E-03 1.607E-03

     total cpu time spent up to now is     1475.3 secs

     total energy              =   -1895.30877664 Ry
     estimated scf accuracy    <       0.00000052 Ry

     total magnetization       =    -0.01 Bohr mag/cell
     absolute magnetization    =     0.04 Bohr mag/cell

     iteration # 41     ecut=    90.00 Ry     beta= 0.20
     Davidson diagonalization with overlap
     ethr =  3.22E-10,  avg # of iterations =  2.2

     negative rho (up, down):  1.606E-03 1.607E-03

     total cpu time spent up to now is     1509.3 secs

     total energy              =   -1895.30877664 Ry
     estimated scf accuracy    <       0.00000146 Ry

     total magnetization       =    -0.01 Bohr mag/cell
     absolute magnetization    =     0.04 Bohr mag/cell

     iteration # 42     ecut=    90.00 Ry     beta= 0.20
     Davidson diagonalization with overlap
     ethr =  3.22E-10,  avg # of iterations =  2.0

     negative rho (up, down):  1.605E-03 1.608E-03

     total cpu time spent up to now is     1543.3 secs

     total energy              =   -1895.30877655 Ry
     estimated scf accuracy    <       0.00000170 Ry

     total magnetization       =    -0.01 Bohr mag/cell
     absolute magnetization    =     0.04 Bohr mag/cell

     iteration # 43     ecut=    90.00 Ry     beta= 0.20
     Davidson diagonalization with overlap
     ethr =  3.22E-10,  avg # of iterations =  1.8

     negative rho (up, down):  1.605E-03 1.608E-03

     total cpu time spent up to now is     1576.3 secs

     total energy              =   -1895.30877664 Ry
     estimated scf accuracy    <       0.00000023 Ry

     total magnetization       =    -0.01 Bohr mag/cell
     absolute magnetization    =     0.04 Bohr mag/cell

     iteration # 44     ecut=    90.00 Ry     beta= 0.20
     Davidson diagonalization with overlap
     ethr =  1.85E-10,  avg # of iterations =  1.7

     negative rho (up, down):  1.605E-03 1.608E-03

     total cpu time spent up to now is     1608.8 secs

     total energy              =   -1895.30877668 Ry
     estimated scf accuracy    <       0.00000020 Ry

     total magnetization       =    -0.01 Bohr mag/cell
     absolute magnetization    =     0.04 Bohr mag/cell

     iteration # 45     ecut=    90.00 Ry     beta= 0.20
     Davidson diagonalization with overlap
     ethr =  1.62E-10,  avg # of iterations =  1.3

     negative rho (up, down):  1.605E-03 1.608E-03

     total cpu time spent up to now is     1640.3 secs

     total energy              =   -1895.30877675 Ry
     estimated scf accuracy    <       0.00000014 Ry

     total magnetization       =    -0.01 Bohr mag/cell
     absolute magnetization    =     0.04 Bohr mag/cell

     iteration # 46     ecut=    90.00 Ry     beta= 0.20
     Davidson diagonalization with overlap
     ethr =  1.15E-10,  avg # of iterations =  3.1

     negative rho (up, down):  1.605E-03 1.608E-03

     total cpu time spent up to now is     1676.2 secs

     total energy              =   -1895.30877672 Ry
     estimated scf accuracy    <       0.00000015 Ry

     total magnetization       =    -0.01 Bohr mag/cell
     absolute magnetization    =     0.04 Bohr mag/cell

     iteration # 47     ecut=    90.00 Ry     beta= 0.20
     Davidson diagonalization with overlap
     ethr =  1.15E-10,  avg # of iterations =  1.1

     negative rho (up, down):  1.605E-03 1.608E-03

     total cpu time spent up to now is     1707.2 secs

     total energy              =   -1895.30877674 Ry
     estimated scf accuracy    <       0.00000017 Ry

     total magnetization       =    -0.01 Bohr mag/cell
     absolute magnetization    =     0.04 Bohr mag/cell

     iteration # 48     ecut=    90.00 Ry     beta= 0.20
     Davidson diagonalization with overlap
     ethr =  1.15E-10,  avg # of iterations =  1.0

     negative rho (up, down):  1.605E-03 1.608E-03

     total cpu time spent up to now is     1737.9 secs

     total energy              =   -1895.30877674 Ry
     estimated scf accuracy    <       0.00000017 Ry

     total magnetization       =    -0.01 Bohr mag/cell
     absolute magnetization    =     0.04 Bohr mag/cell

     iteration # 49     ecut=    90.00 Ry     beta= 0.20
     Davidson diagonalization with overlap
     ethr =  1.15E-10,  avg # of iterations =  1.0

     negative rho (up, down):  1.605E-03 1.608E-03

     total cpu time spent up to now is     1768.5 secs

     total energy              =   -1895.30877674 Ry
     estimated scf accuracy    <       0.00000017 Ry

     total magnetization       =    -0.01 Bohr mag/cell
     absolute magnetization    =     0.04 Bohr mag/cell

     iteration # 50     ecut=    90.00 Ry     beta= 0.20
     Davidson diagonalization with overlap
     ethr =  1.15E-10,  avg # of iterations =  1.0

     negative rho (up, down):  1.605E-03 1.608E-03

     total cpu time spent up to now is     1799.0 secs

     total energy              =   -1895.30877674 Ry
     estimated scf accuracy    <       0.00000017 Ry

     total magnetization       =    -0.01 Bohr mag/cell
     absolute magnetization    =     0.04 Bohr mag/cell

     iteration # 51     ecut=    90.00 Ry     beta= 0.20
     Davidson diagonalization with overlap
     ethr =  1.15E-10,  avg # of iterations =  1.0

     negative rho (up, down):  1.605E-03 1.608E-03

     total cpu time spent up to now is     1829.6 secs

     total energy              =   -1895.30877675 Ry
     estimated scf accuracy    <       0.00000018 Ry

     total magnetization       =    -0.01 Bohr mag/cell
     absolute magnetization    =     0.04 Bohr mag/cell

     iteration # 52     ecut=    90.00 Ry     beta= 0.20
     Davidson diagonalization with overlap
     ethr =  1.15E-10,  avg # of iterations =  1.0

     negative rho (up, down):  1.605E-03 1.608E-03

     total cpu time spent up to now is     1860.2 secs

     total energy              =   -1895.30877675 Ry
     estimated scf accuracy    <       0.00000019 Ry

     total magnetization       =    -0.01 Bohr mag/cell
     absolute magnetization    =     0.04 Bohr mag/cell

     iteration # 53     ecut=    90.00 Ry     beta= 0.20
     Davidson diagonalization with overlap
     ethr =  1.15E-10,  avg # of iterations =  1.0

     negative rho (up, down):  1.605E-03 1.608E-03

     total cpu time spent up to now is     1890.8 secs

     total energy              =   -1895.30877675 Ry
     estimated scf accuracy    <       0.00000016 Ry

     total magnetization       =    -0.01 Bohr mag/cell
     absolute magnetization    =     0.04 Bohr mag/cell

     iteration # 54     ecut=    90.00 Ry     beta= 0.20
     Davidson diagonalization with overlap
     ethr =  1.15E-10,  avg # of iterations =  1.0

     negative rho (up, down):  1.605E-03 1.608E-03

     total cpu time spent up to now is     1921.3 secs

     total energy              =   -1895.30877682 Ry
     estimated scf accuracy    <       0.00000018 Ry

     total magnetization       =    -0.01 Bohr mag/cell
     absolute magnetization    =     0.04 Bohr mag/cell

     iteration # 55     ecut=    90.00 Ry     beta= 0.20
     Davidson diagonalization with overlap
     ethr =  1.15E-10,  avg # of iterations =  3.2

     negative rho (up, down):  1.606E-03 1.608E-03

     total cpu time spent up to now is     1957.1 secs

     total energy              =   -1895.30877680 Ry
     estimated scf accuracy    <       0.00000016 Ry

     total magnetization       =    -0.01 Bohr mag/cell
     absolute magnetization    =     0.04 Bohr mag/cell

     iteration # 56     ecut=    90.00 Ry     beta= 0.20
     Davidson diagonalization with overlap
     ethr =  1.15E-10,  avg # of iterations =  1.0

     negative rho (up, down):  1.605E-03 1.608E-03

     total cpu time spent up to now is     1987.7 secs

     total energy              =   -1895.30877680 Ry
     estimated scf accuracy    <       0.00000019 Ry

     total magnetization       =    -0.01 Bohr mag/cell
     absolute magnetization    =     0.04 Bohr mag/cell

     iteration # 57     ecut=    90.00 Ry     beta= 0.20
     Davidson diagonalization with overlap
     ethr =  1.15E-10,  avg # of iterations =  1.0

     negative rho (up, down):  1.605E-03 1.608E-03

     total cpu time spent up to now is     2018.2 secs

     total energy              =   -1895.30877676 Ry
     estimated scf accuracy    <       0.00000021 Ry

     total magnetization       =    -0.01 Bohr mag/cell
     absolute magnetization    =     0.04 Bohr mag/cell

     iteration # 58     ecut=    90.00 Ry     beta= 0.20
     Davidson diagonalization with overlap
     ethr =  1.15E-10,  avg # of iterations =  1.2

     negative rho (up, down):  1.605E-03 1.608E-03

     total cpu time spent up to now is     2049.2 secs

     total energy              =   -1895.30877677 Ry
     estimated scf accuracy    <       0.00000021 Ry

     total magnetization       =    -0.01 Bohr mag/cell
     absolute magnetization    =     0.04 Bohr mag/cell

     iteration # 59     ecut=    90.00 Ry     beta= 0.20
     Davidson diagonalization with overlap
     ethr =  1.15E-10,  avg # of iterations =  1.1

     negative rho (up, down):  1.605E-03 1.608E-03

     total cpu time spent up to now is     2080.2 secs

     total energy              =   -1895.30877677 Ry
     estimated scf accuracy    <       0.00000018 Ry

     total magnetization       =    -0.01 Bohr mag/cell
     absolute magnetization    =     0.04 Bohr mag/cell

     iteration # 60     ecut=    90.00 Ry     beta= 0.20
     Davidson diagonalization with overlap
     ethr =  1.15E-10,  avg # of iterations =  1.0

     negative rho (up, down):  1.605E-03 1.608E-03

     total cpu time spent up to now is     2110.7 secs

     total energy              =   -1895.30877676 Ry
     estimated scf accuracy    <       0.00000017 Ry

     total magnetization       =    -0.01 Bohr mag/cell
     absolute magnetization    =     0.04 Bohr mag/cell

     iteration # 61     ecut=    90.00 Ry     beta= 0.20
     Davidson diagonalization with overlap
     ethr =  1.15E-10,  avg # of iterations =  1.0

     negative rho (up, down):  1.605E-03 1.608E-03

     total cpu time spent up to now is     2141.3 secs

     total energy              =   -1895.30877677 Ry
     estimated scf accuracy    <       0.00000017 Ry

     total magnetization       =    -0.01 Bohr mag/cell
     absolute magnetization    =     0.04 Bohr mag/cell

     iteration # 62     ecut=    90.00 Ry     beta= 0.20
     Davidson diagonalization with overlap
     ethr =  1.15E-10,  avg # of iterations =  1.0

     negative rho (up, down):  1.605E-03 1.608E-03

     total cpu time spent up to now is     2171.8 secs

     total energy              =   -1895.30877681 Ry
     estimated scf accuracy    <       0.00000018 Ry

     total magnetization       =    -0.01 Bohr mag/cell
     absolute magnetization    =     0.04 Bohr mag/cell

     iteration # 63     ecut=    90.00 Ry     beta= 0.20
     Davidson diagonalization with overlap
     ethr =  1.15E-10,  avg # of iterations =  1.0

     negative rho (up, down):  1.605E-03 1.608E-03

     total cpu time spent up to now is     2202.3 secs

     total energy              =   -1895.30877684 Ry
     estimated scf accuracy    <       0.00000021 Ry

     total magnetization       =    -0.01 Bohr mag/cell
     absolute magnetization    =     0.04 Bohr mag/cell

     iteration # 64     ecut=    90.00 Ry     beta= 0.20
     Davidson diagonalization with overlap
     ethr =  1.15E-10,  avg # of iterations =  1.0

     negative rho (up, down):  1.604E-03 1.609E-03

     total cpu time spent up to now is     2232.9 secs

     total energy              =   -1895.30877683 Ry
     estimated scf accuracy    <       0.00000017 Ry

     total magnetization       =    -0.01 Bohr mag/cell
     absolute magnetization    =     0.04 Bohr mag/cell

     iteration # 65     ecut=    90.00 Ry     beta= 0.20
     Davidson diagonalization with overlap
     ethr =  1.15E-10,  avg # of iterations =  1.0

     negative rho (up, down):  1.605E-03 1.608E-03

     total cpu time spent up to now is     2263.4 secs

     total energy              =   -1895.30877681 Ry
     estimated scf accuracy    <       0.00000020 Ry

     total magnetization       =    -0.00 Bohr mag/cell
     absolute magnetization    =     0.04 Bohr mag/cell

     iteration # 66     ecut=    90.00 Ry     beta= 0.20
     Davidson diagonalization with overlap
     ethr =  1.15E-10,  avg # of iterations =  1.0

     negative rho (up, down):  1.605E-03 1.608E-03

     total cpu time spent up to now is     2293.9 secs

     total energy              =   -1895.30877681 Ry
     estimated scf accuracy    <       0.00000018 Ry

     total magnetization       =    -0.01 Bohr mag/cell
     absolute magnetization    =     0.04 Bohr mag/cell

     iteration # 67     ecut=    90.00 Ry     beta= 0.20
     Davidson diagonalization with overlap
     ethr =  1.15E-10,  avg # of iterations =  1.0

     negative rho (up, down):  1.605E-03 1.609E-03

     total cpu time spent up to now is     2324.4 secs

     total energy              =   -1895.30877678 Ry
     estimated scf accuracy    <       0.00000018 Ry

     total magnetization       =    -0.01 Bohr mag/cell
     absolute magnetization    =     0.04 Bohr mag/cell

     iteration # 68     ecut=    90.00 Ry     beta= 0.20
     Davidson diagonalization with overlap
     ethr =  1.15E-10,  avg # of iterations =  1.1

     negative rho (up, down):  1.605E-03 1.608E-03

     total cpu time spent up to now is     2355.3 secs

     total energy              =   -1895.30877677 Ry
     estimated scf accuracy    <       0.00000028 Ry

     total magnetization       =    -0.01 Bohr mag/cell
     absolute magnetization    =     0.04 Bohr mag/cell

     iteration # 69     ecut=    90.00 Ry     beta= 0.20
     Davidson diagonalization with overlap
     ethr =  1.15E-10,  avg # of iterations =  1.2

     negative rho (up, down):  1.605E-03 1.608E-03

     total cpu time spent up to now is     2386.3 secs

     total energy              =   -1895.30877674 Ry
     estimated scf accuracy    <       0.00000026 Ry

     total magnetization       =    -0.01 Bohr mag/cell
     absolute magnetization    =     0.04 Bohr mag/cell

     iteration # 70     ecut=    90.00 Ry     beta= 0.20
     Davidson diagonalization with overlap
     ethr =  1.15E-10,  avg # of iterations =  1.3

     negative rho (up, down):  1.605E-03 1.608E-03

     total cpu time spent up to now is     2417.7 secs

     total energy              =   -1895.30877682 Ry
     estimated scf accuracy    <       0.00000041 Ry

     total magnetization       =    -0.01 Bohr mag/cell
     absolute magnetization    =     0.04 Bohr mag/cell

     iteration # 71     ecut=    90.00 Ry     beta= 0.20
     Davidson diagonalization with overlap
     ethr =  1.15E-10,  avg # of iterations =  3.8

     negative rho (up, down):  1.606E-03 1.607E-03

     total cpu time spent up to now is     2456.0 secs

     total energy              =   -1895.30877684 Ry
     estimated scf accuracy    <       0.00000047 Ry

     total magnetization       =    -0.01 Bohr mag/cell
     absolute magnetization    =     0.04 Bohr mag/cell

     iteration # 72     ecut=    90.00 Ry     beta= 0.20
     Davidson diagonalization with overlap
     ethr =  1.15E-10,  avg # of iterations =  3.2

     negative rho (up, down):  1.606E-03 1.607E-03

     total cpu time spent up to now is     2491.6 secs

     total energy              =   -1895.30877682 Ry
     estimated scf accuracy    <       0.00000049 Ry

     total magnetization       =    -0.01 Bohr mag/cell
     absolute magnetization    =     0.04 Bohr mag/cell

     iteration # 73     ecut=    90.00 Ry     beta= 0.20
     Davidson diagonalization with overlap
     ethr =  1.15E-10,  avg # of iterations =  2.8

     negative rho (up, down):  1.606E-03 1.607E-03

     total cpu time spent up to now is     2526.3 secs

     total energy              =   -1895.30877683 Ry
     estimated scf accuracy    <       0.00000020 Ry

     total magnetization       =    -0.01 Bohr mag/cell
     absolute magnetization    =     0.04 Bohr mag/cell

     iteration # 74     ecut=    90.00 Ry     beta= 0.20
     Davidson diagonalization with overlap
     ethr =  1.15E-10,  avg # of iterations =  1.0

     negative rho (up, down):  1.606E-03 1.607E-03

     total cpu time spent up to now is     2556.8 secs

     total energy              =   -1895.30877682 Ry
     estimated scf accuracy    <       0.00000017 Ry

     total magnetization       =    -0.01 Bohr mag/cell
     absolute magnetization    =     0.04 Bohr mag/cell

     iteration # 75     ecut=    90.00 Ry     beta= 0.20
     Davidson diagonalization with overlap
     ethr =  1.15E-10,  avg # of iterations =  1.2

     negative rho (up, down):  1.606E-03 1.607E-03

     total cpu time spent up to now is     2587.7 secs

     total energy              =   -1895.30877681 Ry
     estimated scf accuracy    <       0.00000017 Ry

     total magnetization       =    -0.01 Bohr mag/cell
     absolute magnetization    =     0.04 Bohr mag/cell

     iteration # 76     ecut=    90.00 Ry     beta= 0.20
     Davidson diagonalization with overlap
     ethr =  1.15E-10,  avg # of iterations =  1.9

     negative rho (up, down):  1.606E-03 1.608E-03

     total cpu time spent up to now is     2620.4 secs

     total energy              =   -1895.30877680 Ry
     estimated scf accuracy    <       0.00000024 Ry

     total magnetization       =    -0.01 Bohr mag/cell
     absolute magnetization    =     0.04 Bohr mag/cell

     iteration # 77     ecut=    90.00 Ry     beta= 0.20
     Davidson diagonalization with overlap
     ethr =  1.15E-10,  avg # of iterations =  1.6

     negative rho (up, down):  1.606E-03 1.607E-03

     total cpu time spent up to now is     2652.8 secs

     total energy              =   -1895.30877683 Ry
     estimated scf accuracy    <       0.00000025 Ry

     total magnetization       =    -0.01 Bohr mag/cell
     absolute magnetization    =     0.04 Bohr mag/cell

     iteration # 78     ecut=    90.00 Ry     beta= 0.20
     Davidson diagonalization with overlap
     ethr =  1.15E-10,  avg # of iterations =  1.1

     negative rho (up, down):  1.606E-03 1.607E-03

     total cpu time spent up to now is     2683.4 secs

     total energy              =   -1895.30877684 Ry
     estimated scf accuracy    <       0.00000017 Ry

     total magnetization       =    -0.01 Bohr mag/cell
     absolute magnetization    =     0.04 Bohr mag/cell

     iteration # 79     ecut=    90.00 Ry     beta= 0.20
     Davidson diagonalization with overlap
     ethr =  1.15E-10,  avg # of iterations =  1.3

     negative rho (up, down):  1.606E-03 1.607E-03

     total cpu time spent up to now is     2714.5 secs

     total energy              =   -1895.30877678 Ry
     estimated scf accuracy    <       0.00000017 Ry

     total magnetization       =    -0.01 Bohr mag/cell
     absolute magnetization    =     0.04 Bohr mag/cell

     iteration # 80     ecut=    90.00 Ry     beta= 0.20
     Davidson diagonalization with overlap
     ethr =  1.15E-10,  avg # of iterations =  5.7

     negative rho (up, down):  1.606E-03 1.607E-03

     total cpu time spent up to now is     2760.6 secs

     total energy              =   -1895.30877690 Ry
     estimated scf accuracy    <       0.00000012 Ry

     total magnetization       =    -0.01 Bohr mag/cell
     absolute magnetization    =     0.04 Bohr mag/cell

     iteration # 81     ecut=    90.00 Ry     beta= 0.20
     Davidson diagonalization with overlap
     ethr =  9.45E-11,  avg # of iterations =  1.1

     negative rho (up, down):  1.606E-03 1.607E-03

     total cpu time spent up to now is     2791.2 secs

     total energy              =   -1895.30877691 Ry
     estimated scf accuracy    <       0.00000026 Ry

     total magnetization       =    -0.01 Bohr mag/cell
     absolute magnetization    =     0.04 Bohr mag/cell

     iteration # 82     ecut=    90.00 Ry     beta= 0.20
     Davidson diagonalization with overlap
     ethr =  9.45E-11,  avg # of iterations =  1.0

     negative rho (up, down):  1.606E-03 1.607E-03

     total cpu time spent up to now is     2821.6 secs

     total energy              =   -1895.30877690 Ry
     estimated scf accuracy    <       0.00000011 Ry

     total magnetization       =    -0.01 Bohr mag/cell
     absolute magnetization    =     0.04 Bohr mag/cell

     iteration # 83     ecut=    90.00 Ry     beta= 0.20
     Davidson diagonalization with overlap
     ethr =  9.10E-11,  avg # of iterations =  1.0

     negative rho (up, down):  1.606E-03 1.607E-03

     total cpu time spent up to now is     2851.9 secs

     total energy              =   -1895.30877691 Ry
     estimated scf accuracy    <       0.00000014 Ry

     total magnetization       =    -0.01 Bohr mag/cell
     absolute magnetization    =     0.04 Bohr mag/cell

     iteration # 84     ecut=    90.00 Ry     beta= 0.20
     Davidson diagonalization with overlap
     ethr =  9.10E-11,  avg # of iterations =  1.0

     negative rho (up, down):  1.607E-03 1.606E-03

     total cpu time spent up to now is     2882.3 secs

     total energy              =   -1895.30877689 Ry
     estimated scf accuracy    <       0.00000022 Ry

     total magnetization       =    -0.01 Bohr mag/cell
     absolute magnetization    =     0.04 Bohr mag/cell

     iteration # 85     ecut=    90.00 Ry     beta= 0.20
     Davidson diagonalization with overlap
     ethr =  9.10E-11,  avg # of iterations =  1.3

     negative rho (up, down):  1.607E-03 1.606E-03

     total cpu time spent up to now is     2913.7 secs

     total energy              =   -1895.30877692 Ry
     estimated scf accuracy    <       0.00000015 Ry

     total magnetization       =    -0.01 Bohr mag/cell
     absolute magnetization    =     0.04 Bohr mag/cell

     iteration # 86     ecut=    90.00 Ry     beta= 0.20
     Davidson diagonalization with overlap
     ethr =  9.10E-11,  avg # of iterations =  1.3

     negative rho (up, down):  1.607E-03 1.606E-03

     total cpu time spent up to now is     2945.0 secs

     total energy              =   -1895.30877691 Ry
     estimated scf accuracy    <       0.00000028 Ry

     total magnetization       =    -0.01 Bohr mag/cell
     absolute magnetization    =     0.04 Bohr mag/cell

     iteration # 87     ecut=    90.00 Ry     beta= 0.20
     Davidson diagonalization with overlap
     ethr =  9.10E-11,  avg # of iterations =  1.0

     negative rho (up, down):  1.607E-03 1.606E-03

     total cpu time spent up to now is     2975.3 secs

     total energy              =   -1895.30877692 Ry
     estimated scf accuracy    <       0.00000014 Ry

     total magnetization       =    -0.01 Bohr mag/cell
     absolute magnetization    =     0.04 Bohr mag/cell

     iteration # 88     ecut=    90.00 Ry     beta= 0.20
     Davidson diagonalization with overlap
     ethr =  9.10E-11,  avg # of iterations =  1.0

     negative rho (up, down):  1.607E-03 1.606E-03

     total cpu time spent up to now is     3005.7 secs

     total energy              =   -1895.30877691 Ry
     estimated scf accuracy    <       0.00000014 Ry

     total magnetization       =    -0.01 Bohr mag/cell
     absolute magnetization    =     0.04 Bohr mag/cell

     iteration # 89     ecut=    90.00 Ry     beta= 0.20
     Davidson diagonalization with overlap
     ethr =  9.10E-11,  avg # of iterations =  1.0

     negative rho (up, down):  1.606E-03 1.607E-03

     total cpu time spent up to now is     3036.0 secs

     total energy              =   -1895.30877693 Ry
     estimated scf accuracy    <       0.00000016 Ry

     total magnetization       =    -0.01 Bohr mag/cell
     absolute magnetization    =     0.04 Bohr mag/cell

     iteration # 90     ecut=    90.00 Ry     beta= 0.20
     Davidson diagonalization with overlap
     ethr =  9.10E-11,  avg # of iterations =  1.2

     negative rho (up, down):  1.606E-03 1.607E-03

     total cpu time spent up to now is     3067.1 secs

     total energy              =   -1895.30877694 Ry
     estimated scf accuracy    <       0.00000013 Ry

     total magnetization       =    -0.01 Bohr mag/cell
     absolute magnetization    =     0.04 Bohr mag/cell

     iteration # 91     ecut=    90.00 Ry     beta= 0.20
     Davidson diagonalization with overlap
     ethr =  9.10E-11,  avg # of iterations =  1.1

     negative rho (up, down):  1.606E-03 1.607E-03

     total cpu time spent up to now is     3097.8 secs

     total energy              =   -1895.30877695 Ry
     estimated scf accuracy    <       0.00000014 Ry

     total magnetization       =    -0.01 Bohr mag/cell
     absolute magnetization    =     0.04 Bohr mag/cell

     iteration # 92     ecut=    90.00 Ry     beta= 0.20
     Davidson diagonalization with overlap
     ethr =  9.10E-11,  avg # of iterations =  1.0

     negative rho (up, down):  1.606E-03 1.606E-03

     total cpu time spent up to now is     3128.1 secs

     total energy              =   -1895.30877693 Ry
     estimated scf accuracy    <       0.00000013 Ry

     total magnetization       =    -0.01 Bohr mag/cell
     absolute magnetization    =     0.04 Bohr mag/cell

     iteration # 93     ecut=    90.00 Ry     beta= 0.20
     Davidson diagonalization with overlap
     ethr =  9.10E-11,  avg # of iterations =  1.0

     negative rho (up, down):  1.606E-03 1.606E-03

     total cpu time spent up to now is     3158.4 secs

     total energy              =   -1895.30877693 Ry
     estimated scf accuracy    <       0.00000021 Ry

     total magnetization       =    -0.01 Bohr mag/cell
     absolute magnetization    =     0.04 Bohr mag/cell

     iteration # 94     ecut=    90.00 Ry     beta= 0.20
     Davidson diagonalization with overlap
     ethr =  9.10E-11,  avg # of iterations =  1.0

     negative rho (up, down):  1.607E-03 1.606E-03

     total cpu time spent up to now is     3188.8 secs

     total energy              =   -1895.30877696 Ry
     estimated scf accuracy    <       0.00000022 Ry

     total magnetization       =    -0.01 Bohr mag/cell
     absolute magnetization    =     0.04 Bohr mag/cell

     iteration # 95     ecut=    90.00 Ry     beta= 0.20
     Davidson diagonalization with overlap
     ethr =  9.10E-11,  avg # of iterations =  2.6

     negative rho (up, down):  1.607E-03 1.606E-03

     total cpu time spent up to now is     3223.2 secs

     total energy              =   -1895.30877696 Ry
     estimated scf accuracy    <       0.00000020 Ry

     total magnetization       =    -0.01 Bohr mag/cell
     absolute magnetization    =     0.04 Bohr mag/cell

     iteration # 96     ecut=    90.00 Ry     beta= 0.20
     Davidson diagonalization with overlap
     ethr =  9.10E-11,  avg # of iterations =  1.0

     negative rho (up, down):  1.607E-03 1.606E-03

     total cpu time spent up to now is     3253.5 secs

     total energy              =   -1895.30877697 Ry
     estimated scf accuracy    <       0.00000015 Ry

     total magnetization       =    -0.01 Bohr mag/cell
     absolute magnetization    =     0.04 Bohr mag/cell

     iteration # 97     ecut=    90.00 Ry     beta= 0.20
     Davidson diagonalization with overlap
     ethr =  9.10E-11,  avg # of iterations =  1.0

     negative rho (up, down):  1.607E-03 1.606E-03

     total cpu time spent up to now is     3283.9 secs

     total energy              =   -1895.30877697 Ry
     estimated scf accuracy    <       0.00000017 Ry

     total magnetization       =    -0.01 Bohr mag/cell
     absolute magnetization    =     0.04 Bohr mag/cell

     iteration # 98     ecut=    90.00 Ry     beta= 0.20
     Davidson diagonalization with overlap
     ethr =  9.10E-11,  avg # of iterations =  1.0

     negative rho (up, down):  1.607E-03 1.606E-03

     total cpu time spent up to now is     3314.4 secs

     total energy              =   -1895.30877697 Ry
     estimated scf accuracy    <       0.00000019 Ry

     total magnetization       =    -0.01 Bohr mag/cell
     absolute magnetization    =     0.04 Bohr mag/cell

     iteration # 99     ecut=    90.00 Ry     beta= 0.20
     Davidson diagonalization with overlap
     ethr =  9.10E-11,  avg # of iterations =  1.7

     negative rho (up, down):  1.607E-03 1.606E-03

     total cpu time spent up to now is     3346.4 secs

     total energy              =   -1895.30877698 Ry
     estimated scf accuracy    <       0.00000022 Ry

     total magnetization       =    -0.01 Bohr mag/cell
     absolute magnetization    =     0.04 Bohr mag/cell

     iteration #100     ecut=    90.00 Ry     beta= 0.20
     Davidson diagonalization with overlap
     ethr =  9.10E-11,  avg # of iterations =  1.0

     negative rho (up, down):  1.606E-03 1.606E-03

     total cpu time spent up to now is     3376.8 secs

     total energy              =   -1895.30877699 Ry
     estimated scf accuracy    <       0.00000014 Ry

     total magnetization       =    -0.01 Bohr mag/cell
     absolute magnetization    =     0.04 Bohr mag/cell

     iteration #101     ecut=    90.00 Ry     beta= 0.20
     Davidson diagonalization with overlap
     ethr =  9.10E-11,  avg # of iterations =  1.0

     negative rho (up, down):  1.607E-03 1.606E-03

     total cpu time spent up to now is     3407.2 secs

     total energy              =   -1895.30877698 Ry
     estimated scf accuracy    <       0.00000019 Ry

     total magnetization       =    -0.01 Bohr mag/cell
     absolute magnetization    =     0.04 Bohr mag/cell

     iteration #102     ecut=    90.00 Ry     beta= 0.20
     Davidson diagonalization with overlap
     ethr =  9.10E-11,  avg # of iterations =  1.1

     negative rho (up, down):  1.607E-03 1.606E-03

     total cpu time spent up to now is     3437.9 secs

     total energy              =   -1895.30877697 Ry
     estimated scf accuracy    <       0.00000017 Ry

     total magnetization       =    -0.01 Bohr mag/cell
     absolute magnetization    =     0.04 Bohr mag/cell

     iteration #103     ecut=    90.00 Ry     beta= 0.20
     Davidson diagonalization with overlap
     ethr =  9.10E-11,  avg # of iterations =  2.4

     negative rho (up, down):  1.607E-03 1.606E-03

     total cpu time spent up to now is     3472.0 secs

     total energy              =   -1895.30877698 Ry
     estimated scf accuracy    <       0.00000015 Ry

     total magnetization       =    -0.01 Bohr mag/cell
     absolute magnetization    =     0.04 Bohr mag/cell

     iteration #104     ecut=    90.00 Ry     beta= 0.20
     Davidson diagonalization with overlap
     ethr =  9.10E-11,  avg # of iterations =  1.0

     negative rho (up, down):  1.607E-03 1.606E-03

     total cpu time spent up to now is     3502.3 secs

     total energy              =   -1895.30877701 Ry
     estimated scf accuracy    <       0.00000015 Ry

     total magnetization       =    -0.01 Bohr mag/cell
     absolute magnetization    =     0.04 Bohr mag/cell

     iteration #105     ecut=    90.00 Ry     beta= 0.20
     Davidson diagonalization with overlap
     ethr =  9.10E-11,  avg # of iterations =  1.3

     negative rho (up, down):  1.607E-03 1.606E-03

     total cpu time spent up to now is     3533.5 secs

     total energy              =   -1895.30877703 Ry
     estimated scf accuracy    <       0.00000019 Ry

     total magnetization       =    -0.01 Bohr mag/cell
     absolute magnetization    =     0.04 Bohr mag/cell

     iteration #106     ecut=    90.00 Ry     beta= 0.20
     Davidson diagonalization with overlap
     ethr =  9.10E-11,  avg # of iterations =  1.3

     negative rho (up, down):  1.607E-03 1.606E-03

     total cpu time spent up to now is     3564.8 secs

     total energy              =   -1895.30877704 Ry
     estimated scf accuracy    <       0.00000018 Ry

     total magnetization       =    -0.01 Bohr mag/cell
     absolute magnetization    =     0.04 Bohr mag/cell

     iteration #107     ecut=    90.00 Ry     beta= 0.20
     Davidson diagonalization with overlap
     ethr =  9.10E-11,  avg # of iterations =  1.0

     negative rho (up, down):  1.608E-03 1.605E-03

     total cpu time spent up to now is     3595.2 secs

     total energy              =   -1895.30877673 Ry
     estimated scf accuracy    <       0.00000016 Ry

     total magnetization       =    -0.01 Bohr mag/cell
     absolute magnetization    =     0.04 Bohr mag/cell

     iteration #108     ecut=    90.00 Ry     beta= 0.20
     Davidson diagonalization with overlap
     ethr =  9.10E-11,  avg # of iterations =  5.7

     negative rho (up, down):  1.608E-03 1.605E-03

     total cpu time spent up to now is     3641.8 secs

     total energy              =   -1895.30877675 Ry
     estimated scf accuracy    <       0.00000068 Ry

     total magnetization       =    -0.01 Bohr mag/cell
     absolute magnetization    =     0.04 Bohr mag/cell

     iteration #109     ecut=    90.00 Ry     beta= 0.20
     Davidson diagonalization with overlap
     ethr =  9.10E-11,  avg # of iterations =  4.6

     negative rho (up, down):  1.608E-03 1.605E-03

     total cpu time spent up to now is     3683.6 secs

     total energy              =   -1895.30877686 Ry
     estimated scf accuracy    <       0.00000039 Ry

     total magnetization       =    -0.01 Bohr mag/cell
     absolute magnetization    =     0.03 Bohr mag/cell

     iteration #110     ecut=    90.00 Ry     beta= 0.20
     Davidson diagonalization with overlap
     ethr =  9.10E-11,  avg # of iterations =  5.1

     negative rho (up, down):  1.608E-03 1.605E-03

     total cpu time spent up to now is     3727.0 secs

     total energy              =   -1895.30877696 Ry
     estimated scf accuracy    <       0.00000040 Ry

     total magnetization       =    -0.01 Bohr mag/cell
     absolute magnetization    =     0.04 Bohr mag/cell

     iteration #111     ecut=    90.00 Ry     beta= 0.20
     Davidson diagonalization with overlap
     ethr =  9.10E-11,  avg # of iterations =  2.0

     negative rho (up, down):  1.608E-03 1.605E-03

     total cpu time spent up to now is     3760.1 secs

     total energy              =   -1895.30877691 Ry
     estimated scf accuracy    <       0.00000036 Ry

     total magnetization       =    -0.01 Bohr mag/cell
     absolute magnetization    =     0.04 Bohr mag/cell

     iteration #112     ecut=    90.00 Ry     beta= 0.20
     Davidson diagonalization with overlap
     ethr =  9.10E-11,  avg # of iterations =  1.8

     negative rho (up, down):  1.608E-03 1.605E-03

     total cpu time spent up to now is     3792.5 secs

     total energy              =   -1895.30877689 Ry
     estimated scf accuracy    <       0.00000017 Ry

     total magnetization       =    -0.01 Bohr mag/cell
     absolute magnetization    =     0.04 Bohr mag/cell

     iteration #113     ecut=    90.00 Ry     beta= 0.20
     Davidson diagonalization with overlap
     ethr =  9.10E-11,  avg # of iterations =  2.3

     negative rho (up, down):  1.608E-03 1.605E-03

     total cpu time spent up to now is     3826.1 secs

     total energy              =   -1895.30877689 Ry
     estimated scf accuracy    <       0.00000023 Ry

     total magnetization       =    -0.01 Bohr mag/cell
     absolute magnetization    =     0.04 Bohr mag/cell

     iteration #114     ecut=    90.00 Ry     beta= 0.20
     Davidson diagonalization with overlap
     ethr =  9.10E-11,  avg # of iterations =  1.4

     negative rho (up, down):  1.606E-03 1.606E-03

     total cpu time spent up to now is     3857.6 secs

     total energy              =   -1895.30877652 Ry
     estimated scf accuracy    <       0.00000016 Ry

     total magnetization       =    -0.01 Bohr mag/cell
     absolute magnetization    =     0.04 Bohr mag/cell

     iteration #115     ecut=    90.00 Ry     beta= 0.20
     Davidson diagonalization with overlap
     c_bands:  2 eigenvalues not converged
     ethr =  9.10E-11,  avg # of iterations =  6.3

     negative rho (up, down):  1.606E-03 1.606E-03

     total cpu time spent up to now is     3908.4 secs

     total energy              =   -1895.30877674 Ry
     estimated scf accuracy    <       0.00000036 Ry

     total magnetization       =    -0.01 Bohr mag/cell
     absolute magnetization    =     0.03 Bohr mag/cell

     iteration #116     ecut=    90.00 Ry     beta= 0.20
     Davidson diagonalization with overlap
     ethr =  9.10E-11,  avg # of iterations =  1.0

     negative rho (up, down):  1.606E-03 1.607E-03

     total cpu time spent up to now is     3938.9 secs

     total energy              =   -1895.30877670 Ry
     estimated scf accuracy    <       0.00000023 Ry

     total magnetization       =    -0.01 Bohr mag/cell
     absolute magnetization    =     0.03 Bohr mag/cell

     iteration #117     ecut=    90.00 Ry     beta= 0.20
     Davidson diagonalization with overlap
     ethr =  9.10E-11,  avg # of iterations =  5.7

     negative rho (up, down):  1.607E-03 1.606E-03

     total cpu time spent up to now is     3984.2 secs

     total energy              =   -1895.30877677 Ry
     estimated scf accuracy    <       0.00000013 Ry

     total magnetization       =    -0.01 Bohr mag/cell
     absolute magnetization    =     0.03 Bohr mag/cell

     iteration #118     ecut=    90.00 Ry     beta= 0.20
     Davidson diagonalization with overlap
     ethr =  9.10E-11,  avg # of iterations =  3.7

     negative rho (up, down):  1.606E-03 1.607E-03

     total cpu time spent up to now is     4020.9 secs

     total energy              =   -1895.30877677 Ry
     estimated scf accuracy    <       0.00000035 Ry

     total magnetization       =    -0.01 Bohr mag/cell
     absolute magnetization    =     0.03 Bohr mag/cell

     iteration #119     ecut=    90.00 Ry     beta= 0.20
     Davidson diagonalization with overlap
     ethr =  9.10E-11,  avg # of iterations =  1.5

     negative rho (up, down):  1.606E-03 1.607E-03

     total cpu time spent up to now is     4052.8 secs

     total energy              =   -1895.30877671 Ry
     estimated scf accuracy    <       0.00000012 Ry

     total magnetization       =    -0.01 Bohr mag/cell
     absolute magnetization    =     0.03 Bohr mag/cell

     iteration #120     ecut=    90.00 Ry     beta= 0.20
     Davidson diagonalization with overlap
     ethr =  9.10E-11,  avg # of iterations =  5.3

     negative rho (up, down):  1.606E-03 1.607E-03

     total cpu time spent up to now is     4093.9 secs

     total energy              =   -1895.30877676 Ry
     estimated scf accuracy    <       0.00000007 Ry

     total magnetization       =    -0.01 Bohr mag/cell
     absolute magnetization    =     0.03 Bohr mag/cell

     iteration #121     ecut=    90.00 Ry     beta= 0.20
     Davidson diagonalization with overlap
     ethr =  5.85E-11,  avg # of iterations =  1.3

     negative rho (up, down):  1.606E-03 1.606E-03

     total cpu time spent up to now is     4125.2 secs

     total energy              =   -1895.30877676 Ry
     estimated scf accuracy    <       0.00000006 Ry

     total magnetization       =    -0.01 Bohr mag/cell
     absolute magnetization    =     0.03 Bohr mag/cell

     iteration #122     ecut=    90.00 Ry     beta= 0.20
     Davidson diagonalization with overlap
     ethr =  5.04E-11,  avg # of iterations =  1.3

     negative rho (up, down):  1.607E-03 1.606E-03

     total cpu time spent up to now is     4156.6 secs

     total energy              =   -1895.30877678 Ry
     estimated scf accuracy    <       0.00000005 Ry

     total magnetization       =    -0.01 Bohr mag/cell
     absolute magnetization    =     0.03 Bohr mag/cell

     iteration #123     ecut=    90.00 Ry     beta= 0.20
     Davidson diagonalization with overlap
     ethr =  4.00E-11,  avg # of iterations =  4.3

     negative rho (up, down):  1.607E-03 1.606E-03

     total cpu time spent up to now is     4194.8 secs

     total energy              =   -1895.30877679 Ry
     estimated scf accuracy    <       0.00000008 Ry

     total magnetization       =    -0.01 Bohr mag/cell
     absolute magnetization    =     0.03 Bohr mag/cell

     iteration #124     ecut=    90.00 Ry     beta= 0.20
     Davidson diagonalization with overlap
     ethr =  4.00E-11,  avg # of iterations =  1.3

     negative rho (up, down):  1.607E-03 1.606E-03

     total cpu time spent up to now is     4226.1 secs

     total energy              =   -1895.30877679 Ry
     estimated scf accuracy    <       0.00000006 Ry

     total magnetization       =    -0.01 Bohr mag/cell
     absolute magnetization    =     0.03 Bohr mag/cell

     iteration #125     ecut=    90.00 Ry     beta= 0.20
     Davidson diagonalization with overlap
     ethr =  4.00E-11,  avg # of iterations =  1.3

     negative rho (up, down):  1.607E-03 1.606E-03

     total cpu time spent up to now is     4257.6 secs

     total energy              =   -1895.30877679 Ry
     estimated scf accuracy    <       0.00000008 Ry

     total magnetization       =    -0.01 Bohr mag/cell
     absolute magnetization    =     0.03 Bohr mag/cell

     iteration #126     ecut=    90.00 Ry     beta= 0.20
     Davidson diagonalization with overlap
     ethr =  4.00E-11,  avg # of iterations =  1.0

     negative rho (up, down):  1.607E-03 1.606E-03

     total cpu time spent up to now is     4288.0 secs

     total energy              =   -1895.30877679 Ry
     estimated scf accuracy    <       0.00000007 Ry

     total magnetization       =    -0.01 Bohr mag/cell
     absolute magnetization    =     0.03 Bohr mag/cell

     iteration #127     ecut=    90.00 Ry     beta= 0.20
     Davidson diagonalization with overlap
     ethr =  4.00E-11,  avg # of iterations =  1.2

     negative rho (up, down):  1.607E-03 1.606E-03

     total cpu time spent up to now is     4319.2 secs

     total energy              =   -1895.30877679 Ry
     estimated scf accuracy    <       0.00000006 Ry

     total magnetization       =    -0.01 Bohr mag/cell
     absolute magnetization    =     0.03 Bohr mag/cell

     iteration #128     ecut=    90.00 Ry     beta= 0.20
     Davidson diagonalization with overlap
     ethr =  4.00E-11,  avg # of iterations =  1.0

     negative rho (up, down):  1.607E-03 1.606E-03

     total cpu time spent up to now is     4350.7 secs

     total energy              =   -1895.30877679 Ry
     estimated scf accuracy    <       0.00000006 Ry

     total magnetization       =    -0.01 Bohr mag/cell
     absolute magnetization    =     0.03 Bohr mag/cell

     iteration #129     ecut=    90.00 Ry     beta= 0.20
     Davidson diagonalization with overlap
     ethr =  4.00E-11,  avg # of iterations =  1.0

     negative rho (up, down):  1.606E-03 1.607E-03

     total cpu time spent up to now is     4381.4 secs

     total energy              =   -1895.30877677 Ry
     estimated scf accuracy    <       0.00000006 Ry

     total magnetization       =    -0.01 Bohr mag/cell
     absolute magnetization    =     0.03 Bohr mag/cell

     iteration #130     ecut=    90.00 Ry     beta= 0.20
     Davidson diagonalization with overlap
     ethr =  4.00E-11,  avg # of iterations =  1.7

     negative rho (up, down):  1.606E-03 1.607E-03

     total cpu time spent up to now is     4413.9 secs

     total energy              =   -1895.30877678 Ry
     estimated scf accuracy    <       0.00000008 Ry

     total magnetization       =    -0.01 Bohr mag/cell
     absolute magnetization    =     0.03 Bohr mag/cell

     iteration #131     ecut=    90.00 Ry     beta= 0.20
     Davidson diagonalization with overlap
     ethr =  4.00E-11,  avg # of iterations =  1.0

     negative rho (up, down):  1.607E-03 1.606E-03

     total cpu time spent up to now is     4444.4 secs

     total energy              =   -1895.30877677 Ry
     estimated scf accuracy    <       0.00000008 Ry

     total magnetization       =    -0.01 Bohr mag/cell
     absolute magnetization    =     0.03 Bohr mag/cell

     iteration #132     ecut=    90.00 Ry     beta= 0.20
     Davidson diagonalization with overlap
     ethr =  4.00E-11,  avg # of iterations =  5.0

     negative rho (up, down):  1.607E-03 1.606E-03

     total cpu time spent up to now is     4486.4 secs

     total energy              =   -1895.30877680 Ry
     estimated scf accuracy    <       0.00000007 Ry

     total magnetization       =    -0.01 Bohr mag/cell
     absolute magnetization    =     0.03 Bohr mag/cell

     iteration #133     ecut=    90.00 Ry     beta= 0.20
     Davidson diagonalization with overlap
     ethr =  4.00E-11,  avg # of iterations =  3.1

     negative rho (up, down):  1.607E-03 1.606E-03

     total cpu time spent up to now is     4522.1 secs

     total energy              =   -1895.30877682 Ry
     estimated scf accuracy    <       0.00000008 Ry

     total magnetization       =    -0.01 Bohr mag/cell
     absolute magnetization    =     0.03 Bohr mag/cell

     iteration #134     ecut=    90.00 Ry     beta= 0.20
     Davidson diagonalization with overlap
     ethr =  4.00E-11,  avg # of iterations =  1.9

     negative rho (up, down):  1.607E-03 1.606E-03

     total cpu time spent up to now is     4554.9 secs

     total energy              =   -1895.30877682 Ry
     estimated scf accuracy    <       0.00000006 Ry

     total magnetization       =    -0.01 Bohr mag/cell
     absolute magnetization    =     0.03 Bohr mag/cell

     iteration #135     ecut=    90.00 Ry     beta= 0.20
     Davidson diagonalization with overlap
     ethr =  4.00E-11,  avg # of iterations =  1.1

     negative rho (up, down):  1.607E-03 1.606E-03

     total cpu time spent up to now is     4585.7 secs

     total energy              =   -1895.30877682 Ry
     estimated scf accuracy    <       0.00000006 Ry

     total magnetization       =    -0.01 Bohr mag/cell
     absolute magnetization    =     0.03 Bohr mag/cell

     iteration #136     ecut=    90.00 Ry     beta= 0.20
     Davidson diagonalization with overlap
     ethr =  4.00E-11,  avg # of iterations =  1.1

     negative rho (up, down):  1.607E-03 1.606E-03

     total cpu time spent up to now is     4616.5 secs

     total energy              =   -1895.30877682 Ry
     estimated scf accuracy    <       0.00000007 Ry

     total magnetization       =    -0.01 Bohr mag/cell
     absolute magnetization    =     0.03 Bohr mag/cell

     iteration #137     ecut=    90.00 Ry     beta= 0.20
     Davidson diagonalization with overlap
     ethr =  4.00E-11,  avg # of iterations =  1.0

     negative rho (up, down):  1.607E-03 1.606E-03

     total cpu time spent up to now is     4647.2 secs

     total energy              =   -1895.30877682 Ry
     estimated scf accuracy    <       0.00000008 Ry

     total magnetization       =    -0.01 Bohr mag/cell
     absolute magnetization    =     0.03 Bohr mag/cell

     iteration #138     ecut=    90.00 Ry     beta= 0.20
     Davidson diagonalization with overlap
     ethr =  4.00E-11,  avg # of iterations =  1.5

     negative rho (up, down):  1.606E-03 1.607E-03

     total cpu time spent up to now is     4679.2 secs

     total energy              =   -1895.30877680 Ry
     estimated scf accuracy    <       0.00000006 Ry

     total magnetization       =    -0.01 Bohr mag/cell
     absolute magnetization    =     0.03 Bohr mag/cell

     iteration #139     ecut=    90.00 Ry     beta= 0.20
     Davidson diagonalization with overlap
     ethr =  4.00E-11,  avg # of iterations =  1.2

     negative rho (up, down):  1.606E-03 1.607E-03

     total cpu time spent up to now is     4710.1 secs

     total energy              =   -1895.30877681 Ry
     estimated scf accuracy    <       0.00000005 Ry

     total magnetization       =    -0.01 Bohr mag/cell
     absolute magnetization    =     0.03 Bohr mag/cell

     iteration #140     ecut=    90.00 Ry     beta= 0.20
     Davidson diagonalization with overlap
     ethr =  4.00E-11,  avg # of iterations =  1.0

     negative rho (up, down):  1.607E-03 1.607E-03

     total cpu time spent up to now is     4740.8 secs

     total energy              =   -1895.30877682 Ry
     estimated scf accuracy    <       0.00000008 Ry

     total magnetization       =    -0.01 Bohr mag/cell
     absolute magnetization    =     0.03 Bohr mag/cell

     iteration #141     ecut=    90.00 Ry     beta= 0.20
     Davidson diagonalization with overlap
     ethr =  4.00E-11,  avg # of iterations =  1.0

     negative rho (up, down):  1.607E-03 1.606E-03

     total cpu time spent up to now is     4771.5 secs

     total energy              =   -1895.30877682 Ry
     estimated scf accuracy    <       0.00000006 Ry

     total magnetization       =    -0.01 Bohr mag/cell
     absolute magnetization    =     0.03 Bohr mag/cell

     iteration #142     ecut=    90.00 Ry     beta= 0.20
     Davidson diagonalization with overlap
     ethr =  4.00E-11,  avg # of iterations =  1.0

     negative rho (up, down):  1.607E-03 1.606E-03

     total cpu time spent up to now is     4802.0 secs

     total energy              =   -1895.30877683 Ry
     estimated scf accuracy    <       0.00000006 Ry

     total magnetization       =    -0.01 Bohr mag/cell
     absolute magnetization    =     0.03 Bohr mag/cell

     iteration #143     ecut=    90.00 Ry     beta= 0.20
     Davidson diagonalization with overlap
     ethr =  4.00E-11,  avg # of iterations =  1.2

     negative rho (up, down):  1.607E-03 1.606E-03

     total cpu time spent up to now is     4833.0 secs

     total energy              =   -1895.30877682 Ry
     estimated scf accuracy    <       0.00000005 Ry

     total magnetization       =    -0.01 Bohr mag/cell
     absolute magnetization    =     0.03 Bohr mag/cell

     iteration #144     ecut=    90.00 Ry     beta= 0.20
     Davidson diagonalization with overlap
     ethr =  4.00E-11,  avg # of iterations =  1.0

     negative rho (up, down):  1.606E-03 1.607E-03

     total cpu time spent up to now is     4863.6 secs

     total energy              =   -1895.30877682 Ry
     estimated scf accuracy    <       0.00000006 Ry

     total magnetization       =    -0.01 Bohr mag/cell
     absolute magnetization    =     0.03 Bohr mag/cell

     iteration #145     ecut=    90.00 Ry     beta= 0.20
     Davidson diagonalization with overlap
     ethr =  4.00E-11,  avg # of iterations =  1.0

     negative rho (up, down):  1.606E-03 1.607E-03

     total cpu time spent up to now is     4894.2 secs

     total energy              =   -1895.30877682 Ry
     estimated scf accuracy    <       0.00000007 Ry

     total magnetization       =    -0.01 Bohr mag/cell
     absolute magnetization    =     0.03 Bohr mag/cell

     iteration #146     ecut=    90.00 Ry     beta= 0.20
     Davidson diagonalization with overlap
     ethr =  4.00E-11,  avg # of iterations =  1.0

     negative rho (up, down):  1.606E-03 1.607E-03

     total cpu time spent up to now is     4924.8 secs

     total energy              =   -1895.30877682 Ry
     estimated scf accuracy    <       0.00000006 Ry

     total magnetization       =    -0.01 Bohr mag/cell
     absolute magnetization    =     0.03 Bohr mag/cell

     iteration #147     ecut=    90.00 Ry     beta= 0.20
     Davidson diagonalization with overlap
     ethr =  4.00E-11,  avg # of iterations =  1.0

     negative rho (up, down):  1.607E-03 1.607E-03

     total cpu time spent up to now is     4955.3 secs

     total energy              =   -1895.30877683 Ry
     estimated scf accuracy    <       0.00000006 Ry

     total magnetization       =    -0.01 Bohr mag/cell
     absolute magnetization    =     0.03 Bohr mag/cell

     iteration #148     ecut=    90.00 Ry     beta= 0.20
     Davidson diagonalization with overlap
     ethr =  4.00E-11,  avg # of iterations =  1.0

     negative rho (up, down):  1.607E-03 1.606E-03

     total cpu time spent up to now is     4985.9 secs

     total energy              =   -1895.30877686 Ry
     estimated scf accuracy    <       0.00000007 Ry

     total magnetization       =    -0.01 Bohr mag/cell
     absolute magnetization    =     0.03 Bohr mag/cell

     iteration #149     ecut=    90.00 Ry     beta= 0.20
     Davidson diagonalization with overlap
     ethr =  4.00E-11,  avg # of iterations =  4.3

     negative rho (up, down):  1.607E-03 1.606E-03

     total cpu time spent up to now is     5024.6 secs

     total energy              =   -1895.30877687 Ry
     estimated scf accuracy    <       0.00000007 Ry

     total magnetization       =    -0.01 Bohr mag/cell
     absolute magnetization    =     0.04 Bohr mag/cell

     iteration #150     ecut=    90.00 Ry     beta= 0.20
     Davidson diagonalization with overlap
     ethr =  4.00E-11,  avg # of iterations =  1.2

     negative rho (up, down):  1.607E-03 1.606E-03

     total cpu time spent up to now is     5055.7 secs

     total energy              =   -1895.30877685 Ry
     estimated scf accuracy    <       0.00000009 Ry

     total magnetization       =    -0.01 Bohr mag/cell
     absolute magnetization    =     0.04 Bohr mag/cell

     iteration #151     ecut=    90.00 Ry     beta= 0.20
     Davidson diagonalization with overlap
     ethr =  4.00E-11,  avg # of iterations =  1.7

     negative rho (up, down):  1.607E-03 1.607E-03

     total cpu time spent up to now is     5088.3 secs

     total energy              =   -1895.30877683 Ry
     estimated scf accuracy    <       0.00000012 Ry

     total magnetization       =    -0.01 Bohr mag/cell
     absolute magnetization    =     0.04 Bohr mag/cell

     iteration #152     ecut=    90.00 Ry     beta= 0.20
     Davidson diagonalization with overlap
     ethr =  4.00E-11,  avg # of iterations =  2.8

     negative rho (up, down):  1.607E-03 1.606E-03

     total cpu time spent up to now is     5123.0 secs

     total energy              =   -1895.30877680 Ry
     estimated scf accuracy    <       0.00000010 Ry

     total magnetization       =    -0.01 Bohr mag/cell
     absolute magnetization    =     0.03 Bohr mag/cell

     iteration #153     ecut=    90.00 Ry     beta= 0.20
     Davidson diagonalization with overlap
     ethr =  4.00E-11,  avg # of iterations =  4.2

     negative rho (up, down):  1.607E-03 1.607E-03

     total cpu time spent up to now is     5161.7 secs

     total energy              =   -1895.30877681 Ry
     estimated scf accuracy    <       0.00000038 Ry

     total magnetization       =    -0.01 Bohr mag/cell
     absolute magnetization    =     0.03 Bohr mag/cell

     iteration #154     ecut=    90.00 Ry     beta= 0.20
     Davidson diagonalization with overlap
     ethr =  4.00E-11,  avg # of iterations =  2.6

     negative rho (up, down):  1.606E-03 1.607E-03

     total cpu time spent up to now is     5196.3 secs

     total energy              =   -1895.30877679 Ry
     estimated scf accuracy    <       0.00000008 Ry

     total magnetization       =    -0.01 Bohr mag/cell
[...]

     negative rho (up, down):  1.606E-03 1.607E-03

     total cpu time spent up to now is    16194.9 secs

     total energy              =   -1895.30877686 Ry
     estimated scf accuracy    <       0.00000004 Ry

     total magnetization       =    -0.00 Bohr mag/cell
     absolute magnetization    =     0.03 Bohr mag/cell

     iteration #473     ecut=    90.00 Ry     beta= 0.20
     Davidson diagonalization with overlap
     ethr =  2.19E-11,  avg # of iterations =  1.0

     negative rho (up, down):  1.606E-03 1.607E-03

     total cpu time spent up to now is    16225.3 secs

     total energy              =   -1895.30877687 Ry
     estimated scf accuracy    <       0.00000005 Ry

     total magnetization       =    -0.00 Bohr mag/cell
     absolute magnetization    =     0.03 Bohr mag/cell

     iteration #474     ecut=    90.00 Ry     beta= 0.20
     Davidson diagonalization with overlap
     ethr =  2.19E-11,  avg # of iterations =  2.0

     negative rho (up, down):  1.606E-03 1.607E-03

     total cpu time spent up to now is    16258.7 secs

     total energy              =   -1895.30877684 Ry
     estimated scf accuracy    <       0.00000006 Ry

     total magnetization       =    -0.00 Bohr mag/cell
     absolute magnetization    =     0.04 Bohr mag/cell

     iteration #475     ecut=    90.00 Ry     beta= 0.20
     Davidson diagonalization with overlap
     ethr =  2.19E-11,  avg # of iterations =  2.2

     negative rho (up, down):  1.606E-03 1.607E-03

     total cpu time spent up to now is    16293.1 secs

     total energy              =   -1895.30877683 Ry
     estimated scf accuracy    <       0.00000005 Ry

     total magnetization       =    -0.00 Bohr mag/cell
     absolute magnetization    =     0.03 Bohr mag/cell

     iteration #476     ecut=    90.00 Ry     beta= 0.20
     Davidson diagonalization with overlap
     ethr =  2.19E-11,  avg # of iterations =  5.9

     negative rho (up, down):  1.606E-03 1.607E-03

     total cpu time spent up to now is    16345.3 secs

     total energy              =   -1895.30877693 Ry
     estimated scf accuracy    <       0.00000005 Ry

     total magnetization       =    -0.00 Bohr mag/cell
     absolute magnetization    =     0.04 Bohr mag/cell

     iteration #477     ecut=    90.00 Ry     beta= 0.20
     Davidson diagonalization with overlap
     ethr =  2.19E-11,  avg # of iterations =  1.3

     negative rho (up, down):  1.606E-03 1.607E-03

     total cpu time spent up to now is    16376.5 secs

     total energy              =   -1895.30877674 Ry
     estimated scf accuracy    <       0.00000010 Ry

     total magnetization       =    -0.00 Bohr mag/cell
     absolute magnetization    =     0.04 Bohr mag/cell

     iteration #478     ecut=    90.00 Ry     beta= 0.20
     Davidson diagonalization with overlap
     ethr =  2.19E-11,  avg # of iterations =  6.3

     negative rho (up, down):  1.606E-03 1.607E-03

     total cpu time spent up to now is    16430.7 secs

     total energy              =   -1895.30877684 Ry
     estimated scf accuracy    <       0.00000006 Ry

     total magnetization       =    -0.00 Bohr mag/cell
     absolute magnetization    =     0.03 Bohr mag/cell

     iteration #479     ecut=    90.00 Ry     beta= 0.20
     Davidson diagonalization with overlap
     ethr =  2.19E-11,  avg # of iterations =  1.2

     negative rho (up, down):  1.606E-03 1.607E-03

     total cpu time spent up to now is    16461.6 secs

     total energy              =   -1895.30877685 Ry
     estimated scf accuracy    <       0.00000004 Ry

     total magnetization       =    -0.00 Bohr mag/cell
     absolute magnetization    =     0.03 Bohr mag/cell

     iteration #480     ecut=    90.00 Ry     beta= 0.20
     Davidson diagonalization with overlap
     ethr =  2.19E-11,  avg # of iterations =  1.0

     negative rho (up, down):  1.606E-03 1.607E-03

     total cpu time spent up to now is    16492.2 secs

     total energy              =   -1895.30877683 Ry
     estimated scf accuracy    <       0.00000003 Ry

     total magnetization       =    -0.00 Bohr mag/cell
     absolute magnetization    =     0.03 Bohr mag/cell

     iteration #481     ecut=    90.00 Ry     beta= 0.20
     Davidson diagonalization with overlap
     ethr =  2.19E-11,  avg # of iterations =  2.5

     negative rho (up, down):  1.606E-03 1.607E-03

     total cpu time spent up to now is    16526.5 secs

     total energy              =   -1895.30877683 Ry
     estimated scf accuracy    <       0.00000003 Ry

     total magnetization       =    -0.00 Bohr mag/cell
     absolute magnetization    =     0.03 Bohr mag/cell

     iteration #482     ecut=    90.00 Ry     beta= 0.20
     Davidson diagonalization with overlap
     ethr =  2.19E-11,  avg # of iterations =  1.0

     negative rho (up, down):  1.607E-03 1.607E-03

     total cpu time spent up to now is    16557.0 secs

     total energy              =   -1895.30877684 Ry
     estimated scf accuracy    <       0.00000003 Ry

     total magnetization       =    -0.00 Bohr mag/cell
     absolute magnetization    =     0.03 Bohr mag/cell

     iteration #483     ecut=    90.00 Ry     beta= 0.20
     Davidson diagonalization with overlap
     ethr =  2.19E-11,  avg # of iterations =  2.3

     negative rho (up, down):  1.607E-03 1.607E-03

     total cpu time spent up to now is    16590.7 secs

     total energy              =   -1895.30877684 Ry
     estimated scf accuracy    <       0.00000003 Ry

     total magnetization       =    -0.00 Bohr mag/cell
     absolute magnetization    =     0.03 Bohr mag/cell

     iteration #484     ecut=    90.00 Ry     beta= 0.20
     Davidson diagonalization with overlap
     ethr =  2.19E-11,  avg # of iterations =  1.0

     negative rho (up, down):  1.606E-03 1.607E-03

     total cpu time spent up to now is    16621.2 secs

     total energy              =   -1895.30877685 Ry
     estimated scf accuracy    <       0.00000003 Ry

     total magnetization       =    -0.00 Bohr mag/cell
     absolute magnetization    =     0.03 Bohr mag/cell

     iteration #485     ecut=    90.00 Ry     beta= 0.20
     Davidson diagonalization with overlap
     ethr =  2.17E-11,  avg # of iterations =  2.8

     negative rho (up, down):  1.607E-03 1.607E-03

     total cpu time spent up to now is    16658.0 secs

     total energy              =   -1895.30877687 Ry
     estimated scf accuracy    <       0.00000004 Ry

     total magnetization       =    -0.00 Bohr mag/cell
     absolute magnetization    =     0.03 Bohr mag/cell

     iteration #486     ecut=    90.00 Ry     beta= 0.20
     Davidson diagonalization with overlap
     ethr =  2.17E-11,  avg # of iterations =  2.3

     negative rho (up, down):  1.607E-03 1.606E-03

     total cpu time spent up to now is    16691.9 secs

     total energy              =   -1895.30877689 Ry
     estimated scf accuracy    <       0.00000003 Ry

     total magnetization       =    -0.00 Bohr mag/cell
     absolute magnetization    =     0.04 Bohr mag/cell

     iteration #487     ecut=    90.00 Ry     beta= 0.20
     Davidson diagonalization with overlap
     ethr =  2.17E-11,  avg # of iterations =  4.8

     negative rho (up, down):  1.607E-03 1.606E-03

     total cpu time spent up to now is    16732.8 secs

     total energy              =   -1895.30877681 Ry
     estimated scf accuracy    <       0.00000004 Ry

     total magnetization       =    -0.00 Bohr mag/cell
     absolute magnetization    =     0.04 Bohr mag/cell

     iteration #488     ecut=    90.00 Ry     beta= 0.20
     Davidson diagonalization with overlap
     ethr =  2.17E-11,  avg # of iterations =  5.0

     negative rho (up, down):  1.607E-03 1.606E-03

     total cpu time spent up to now is    16778.0 secs

     total energy              =   -1895.30877685 Ry
     estimated scf accuracy    <       0.00000005 Ry

     total magnetization       =    -0.00 Bohr mag/cell
     absolute magnetization    =     0.03 Bohr mag/cell

     iteration #489     ecut=    90.00 Ry     beta= 0.20
     Davidson diagonalization with overlap
     ethr =  2.17E-11,  avg # of iterations =  1.0

     negative rho (up, down):  1.607E-03 1.606E-03

     total cpu time spent up to now is    16808.4 secs

     total energy              =   -1895.30877687 Ry
     estimated scf accuracy    <       0.00000004 Ry

     total magnetization       =    -0.00 Bohr mag/cell
     absolute magnetization    =     0.03 Bohr mag/cell

     iteration #490     ecut=    90.00 Ry     beta= 0.20
     Davidson diagonalization with overlap
     ethr =  2.17E-11,  avg # of iterations =  1.5

     negative rho (up, down):  1.606E-03 1.607E-03

     total cpu time spent up to now is    16840.4 secs

     total energy              =   -1895.30877676 Ry
     estimated scf accuracy    <       0.00000004 Ry

     total magnetization       =    -0.00 Bohr mag/cell
     absolute magnetization    =     0.03 Bohr mag/cell

     iteration #491     ecut=    90.00 Ry     beta= 0.20
     Davidson diagonalization with overlap
     ethr =  2.17E-11,  avg # of iterations =  5.2

     negative rho (up, down):  1.607E-03 1.607E-03

     total cpu time spent up to now is    16888.5 secs

     total energy              =   -1895.30877682 Ry
     estimated scf accuracy    <       0.00000006 Ry

     total magnetization       =    -0.00 Bohr mag/cell
     absolute magnetization    =     0.03 Bohr mag/cell

     iteration #492     ecut=    90.00 Ry     beta= 0.20
     Davidson diagonalization with overlap
     ethr =  2.17E-11,  avg # of iterations =  1.1

     negative rho (up, down):  1.607E-03 1.607E-03

     total cpu time spent up to now is    16919.1 secs

     total energy              =   -1895.30877684 Ry
     estimated scf accuracy    <       0.00000003 Ry

     total magnetization       =    -0.00 Bohr mag/cell
     absolute magnetization    =     0.03 Bohr mag/cell

     iteration #493     ecut=    90.00 Ry     beta= 0.20
     Davidson diagonalization with overlap
     ethr =  2.17E-11,  avg # of iterations =  4.2

     negative rho (up, down):  1.607E-03 1.607E-03

     total cpu time spent up to now is    16959.7 secs

     total energy              =   -1895.30877684 Ry
     estimated scf accuracy    <       0.00000003 Ry

     total magnetization       =    -0.00 Bohr mag/cell
     absolute magnetization    =     0.03 Bohr mag/cell

     iteration #494     ecut=    90.00 Ry     beta= 0.20
     Davidson diagonalization with overlap
     ethr =  2.17E-11,  avg # of iterations =  1.0

     negative rho (up, down):  1.607E-03 1.606E-03

     total cpu time spent up to now is    16990.1 secs

     total energy              =   -1895.30877685 Ry
     estimated scf accuracy    <       0.00000003 Ry

     total magnetization       =    -0.00 Bohr mag/cell
     absolute magnetization    =     0.03 Bohr mag/cell

     iteration #495     ecut=    90.00 Ry     beta= 0.20
     Davidson diagonalization with overlap
     ethr =  2.17E-11,  avg # of iterations =  5.5

     negative rho (up, down):  1.607E-03 1.606E-03

     total cpu time spent up to now is    17036.1 secs

     total energy              =   -1895.30877687 Ry
     estimated scf accuracy    <       0.00000008 Ry

     total magnetization       =    -0.00 Bohr mag/cell
     absolute magnetization    =     0.04 Bohr mag/cell

     iteration #496     ecut=    90.00 Ry     beta= 0.20
     Davidson diagonalization with overlap
     ethr =  2.17E-11,  avg # of iterations =  2.5

     negative rho (up, down):  1.607E-03 1.606E-03

     total cpu time spent up to now is    17070.3 secs

     total energy              =   -1895.30877688 Ry
     estimated scf accuracy    <       0.00000010 Ry

     total magnetization       =    -0.00 Bohr mag/cell
     absolute magnetization    =     0.04 Bohr mag/cell

     iteration #497     ecut=    90.00 Ry     beta= 0.20
     Davidson diagonalization with overlap
     ethr =  2.17E-11,  avg # of iterations =  4.6

     negative rho (up, down):  1.607E-03 1.606E-03

     total cpu time spent up to now is    17110.3 secs

     total energy              =   -1895.30877688 Ry
     estimated scf accuracy    <       0.00000008 Ry

     total magnetization       =    -0.00 Bohr mag/cell
     absolute magnetization    =     0.04 Bohr mag/cell

     iteration #498     ecut=    90.00 Ry     beta= 0.20
     Davidson diagonalization with overlap
     ethr =  2.17E-11,  avg # of iterations =  1.0

     negative rho (up, down):  1.607E-03 1.606E-03

     total cpu time spent up to now is    17140.8 secs

     total energy              =   -1895.30877687 Ry
     estimated scf accuracy    <       0.00000006 Ry

     total magnetization       =    -0.00 Bohr mag/cell
     absolute magnetization    =     0.04 Bohr mag/cell

     iteration #499     ecut=    90.00 Ry     beta= 0.20
     Davidson diagonalization with overlap
     ethr =  2.17E-11,  avg # of iterations =  2.2

     negative rho (up, down):  1.607E-03 1.606E-03

     total cpu time spent up to now is    17174.4 secs

     total energy              =   -1895.30877688 Ry
     estimated scf accuracy    <       0.00000007 Ry

     total magnetization       =    -0.00 Bohr mag/cell
     absolute magnetization    =     0.03 Bohr mag/cell

     iteration #500     ecut=    90.00 Ry     beta= 0.20
     Davidson diagonalization with overlap
     ethr =  2.17E-11,  avg # of iterations =  1.4

     negative rho (up, down):  1.606E-03 1.607E-03

     total cpu time spent up to now is    17205.9 secs

     total energy              =   -1895.30877685 Ry
     estimated scf accuracy    <       0.00000006 Ry

     total magnetization       =    -0.00 Bohr mag/cell
     absolute magnetization    =     0.04 Bohr mag/cell

     iteration #501     ecut=    90.00 Ry     beta= 0.20
     Davidson diagonalization with overlap
     ethr =  2.17E-11,  avg # of iterations =  5.4

     negative rho (up, down):  1.606E-03 1.607E-03

     total cpu time spent up to now is    17250.0 secs

     total energy              =   -1895.30877686 Ry
     estimated scf accuracy    <       0.00000014 Ry

     total magnetization       =    -0.00 Bohr mag/cell
     absolute magnetization    =     0.04 Bohr mag/cell

     iteration #502     ecut=    90.00 Ry     beta= 0.20
     Davidson diagonalization with overlap
     ethr =  2.17E-11,  avg # of iterations =  5.2

     negative rho (up, down):  1.606E-03 1.607E-03

     total cpu time spent up to now is    17291.9 secs

     total energy              =   -1895.30877685 Ry
     estimated scf accuracy    <       0.00000008 Ry

     total magnetization       =    -0.00 Bohr mag/cell
     absolute magnetization    =     0.04 Bohr mag/cell

     iteration #503     ecut=    90.00 Ry     beta= 0.20
     Davidson diagonalization with overlap
     ethr =  2.17E-11,  avg # of iterations =  2.7

     negative rho (up, down):  1.606E-03 1.607E-03

     total cpu time spent up to now is    17327.8 secs

     total energy              =   -1895.30877687 Ry
     estimated scf accuracy    <       0.00000006 Ry

     total magnetization       =    -0.00 Bohr mag/cell
     absolute magnetization    =     0.03 Bohr mag/cell

     iteration #504     ecut=    90.00 Ry     beta= 0.20
     Davidson diagonalization with overlap
     ethr =  2.17E-11,  avg # of iterations =  1.2

     negative rho (up, down):  1.606E-03 1.607E-03

     total cpu time spent up to now is    17358.9 secs

     total energy              =   -1895.30877684 Ry
     estimated scf accuracy    <       0.00000008 Ry

     total magnetization       =    -0.00 Bohr mag/cell
     absolute magnetization    =     0.04 Bohr mag/cell

     iteration #505     ecut=    90.00 Ry     beta= 0.20
     Davidson diagonalization with overlap
     ethr =  2.17E-11,  avg # of iterations =  6.3

     negative rho (up, down):  1.606E-03 1.607E-03

     total cpu time spent up to now is    17412.6 secs

     total energy              =   -1895.30877688 Ry
     estimated scf accuracy    <       0.00000012 Ry

     total magnetization       =    -0.00 Bohr mag/cell
     absolute magnetization    =     0.04 Bohr mag/cell

     iteration #506     ecut=    90.00 Ry     beta= 0.20
     Davidson diagonalization with overlap
     ethr =  2.17E-11,  avg # of iterations =  4.4

     negative rho (up, down):  1.606E-03 1.607E-03

     total cpu time spent up to now is    17454.8 secs

     total energy              =   -1895.30877691 Ry
     estimated scf accuracy    <       0.00000007 Ry

     total magnetization       =    -0.00 Bohr mag/cell
     absolute magnetization    =     0.04 Bohr mag/cell

     iteration #507     ecut=    90.00 Ry     beta= 0.20
     Davidson diagonalization with overlap
     ethr =  2.17E-11,  avg # of iterations =  3.5

     negative rho (up, down):  1.606E-03 1.607E-03

     total cpu time spent up to now is    17491.2 secs

     total energy              =   -1895.30877689 Ry
     estimated scf accuracy    <       0.00000006 Ry

     total magnetization       =    -0.00 Bohr mag/cell
     absolute magnetization    =     0.04 Bohr mag/cell

     iteration #508     ecut=    90.00 Ry     beta= 0.20
     Davidson diagonalization with overlap
     ethr =  2.17E-11,  avg # of iterations =  2.3

     negative rho (up, down):  1.606E-03 1.607E-03

     total cpu time spent up to now is    17525.9 secs

     total energy              =   -1895.30877690 Ry
     estimated scf accuracy    <       0.00000004 Ry

     total magnetization       =    -0.00 Bohr mag/cell
     absolute magnetization    =     0.04 Bohr mag/cell

     iteration #509     ecut=    90.00 Ry     beta= 0.20
     Davidson diagonalization with overlap
     ethr =  2.17E-11,  avg # of iterations =  1.0

     negative rho (up, down):  1.606E-03 1.607E-03

     total cpu time spent up to now is    17556.5 secs

     total energy              =   -1895.30877691 Ry
     estimated scf accuracy    <       0.00000005 Ry

     total magnetization       =    -0.00 Bohr mag/cell
     absolute magnetization    =     0.04 Bohr mag/cell

     iteration #510     ecut=    90.00 Ry     beta= 0.20
     Davidson diagonalization with overlap
     ethr =  2.17E-11,  avg # of iterations =  1.2

     negative rho (up, down):  1.606E-03 1.607E-03

     total cpu time spent up to now is    17587.5 secs

     total energy              =   -1895.30877674 Ry
     estimated scf accuracy    <       0.00000004 Ry

     total magnetization       =    -0.00 Bohr mag/cell
     absolute magnetization    =     0.04 Bohr mag/cell

     iteration #511     ecut=    90.00 Ry     beta= 0.20
     Davidson diagonalization with overlap
     ethr =  2.17E-11,  avg # of iterations =  7.7

     negative rho (up, down):  1.606E-03 1.607E-03

     total cpu time spent up to now is    17650.1 secs

     total energy              =   -1895.30877620 Ry
     estimated scf accuracy    <       0.00000006 Ry

     total magnetization       =     0.00 Bohr mag/cell
     absolute magnetization    =     0.04 Bohr mag/cell

     iteration #512     ecut=    90.00 Ry     beta= 0.20
     Davidson diagonalization with overlap
     ethr =  2.17E-11,  avg # of iterations =  8.9

     negative rho (up, down):  1.606E-03 1.607E-03

     total cpu time spent up to now is    17723.4 secs

     total energy              =   -1895.30877683 Ry
     estimated scf accuracy    <       0.00000010 Ry

     total magnetization       =    -0.00 Bohr mag/cell
     absolute magnetization    =     0.03 Bohr mag/cell

     iteration #513     ecut=    90.00 Ry     beta= 0.20
     Davidson diagonalization with overlap

 %%%%%%%%%%%%%%%%%%%%%%%%%%%%%%%%%%%%%%%%%%%%%%%%%%%%%%%%%%%%%%%%%%%%%%%%%%%%%%
     Error in routine cdiaghg (290):
     S matrix not positive definite
 %%%%%%%%%%%%%%%%%%%%%%%%%%%%%%%%%%%%%%%%%%%%%%%%%%%%%%%%%%%%%%%%%%%%%%%%%%%%%%

     stopping ...
Abort(290) on node 0 (rank 0 in comm 0): application called MPI_Abort(MPI_COMM_WORLD, 290) - process 0
