LAMMPS data file

4 atoms
1 atom types

0.0 2.46065097363807 xlo xhi
0.0 2.32212373112635 ylo yhi
0.0 7.90550567868103 zlo zhi
-0.813968960468357 8.43997218691048e-05 -1.56242320631915e-06 xy xz yz


Atoms

1 1 0.8696711829 1.1267762350 1.9777401129
2 1 2.4589647580 -0.0996479565 7.9040666743
3 1 0.8698474214 1.1266677670 5.9305106988
4 1 2.4587879159 -0.0995358515 3.9512986479
