 # H4
  
           4  atoms
           1  atom types
 
      0.000000000000       2.337665000000  xlo xhi
      0.000000000000       2.136223412034  ylo yhi
      0.000000000000       7.489141842757  zlo zhi
     -0.949329861588      -0.559036175748       0.060930812385  xy xz yz
 
Masses
 
            1   1.00800000              # H
 
Atoms # atomic
 
         1    1        0.641896857325       1.100259297759       1.724892551492
         2    1       -1.461402991775       2.153919263178       7.339097777347
         3    1        0.362511930451       1.130626620467       5.469485940296
         4    1       -1.182018184932       2.123556273848       3.594511877685
