 # H4
  
           4  atoms
           1  atom types
 
      0.000000000000       2.337665000000  xlo xhi
      0.000000000000       2.251720431130  ylo yhi
      0.000000000000       7.901426615504  zlo zhi
     -0.992370691844       0.247983954579      -0.053774046518  xy xz yz
 
Masses
 
            1   1.00800000              # H
 
Atoms # atomic
 
         1    1        0.843794516073       1.095976527620       1.881887729131
         2    1       -0.674834865287       2.118146069334       7.805160585737
         3    1        0.967924055300       1.068985763899       5.832624741163
         4    1       -0.798963803607       2.145141282722       3.854431475132
