 # H4
  
           4  atoms
           1  atom types
 
      0.000000000000       2.542723333333  xlo xhi
      0.000000000000       2.329840142696  ylo yhi
      0.000000000000       7.890865280970  zlo zhi
     -0.791763474455      -0.452074082102      -0.163720468704  xy xz yz
 
Masses
 
            1   1.00800000              # H
 
Atoms # atomic
 
         1    1        0.966977755637       1.214715309356       2.105043250531
         2    1        0.153602036574       0.025205301733       0.129533563979
         3    1        0.741074945694       1.132747411195       6.050499563611
         4    1       -0.072568728462      -0.056542772851       4.074950422733
