 # H4
  
           4  atoms
           1  atom types
 
      0.000000000000       2.501711666667  xlo xhi
      0.000000000000       2.333629292275  ylo yhi
      0.000000000000       7.902905957115  zlo zhi
     -0.780524705717       0.193627967000       0.059294969298  xy xz yz
 
Masses
 
            1   1.00800000              # H
 
Atoms # atomic
 
         1    1        0.829840695123       1.175513587859       2.030183949053
         2    1        1.591751185144       2.261798837563       0.051659831065
         3    1        0.926788730398       1.205053903445       5.981660636329
         4    1        1.688432251159       2.291558217828       4.003097003811
