 # H4
  
           4  atoms
           1  atom types
 
      0.000000000000       2.583735000000  xlo xhi
      0.000000000000       2.475810650893  ylo yhi
      0.000000000000       7.896086615034  zlo zhi
     -0.738950723086       0.164339597726      -0.348911040958  xy xz yz
 
Masses
 
            1   1.00800000              # H
 
Atoms # atomic
 
         1    1        1.181043519705       1.190278951634       2.159067681271
         2    1       -0.575186509970       2.445848909437       0.182250812851
         3    1        1.263348568985       1.015708497131       6.107134677048
         4    1       -0.493150691351       2.271512925692       4.130278328195
