 # H4
  
           4  atoms
           1  atom types
 
      0.000000000000       2.337665000000  xlo xhi
      0.000000000000       2.260101262387  ylo yhi
      0.000000000000       7.892393660217  zlo zhi
     -0.597176637169      -0.280634992863       0.358185095923  xy xz yz
 
Masses
 
            1   1.00800000              # H
 
Atoms # atomic
 
         1    1        0.970028285273       1.016457213232       1.895894355066
         2    1       -0.758404675280       2.351404798612       7.812395692873
         3    1        0.829828585997       1.195446871091       5.842114862355
         4    1       -0.618204113327       2.172420019141       3.866183077977
