 # H4
  
           4  atoms
           1  atom types
 
      0.000000000000       2.378676666667  xlo xhi
      0.000000000000       2.264405692581  ylo yhi
      0.000000000000       7.886547743531  zlo zhi
     -0.963073906513       0.547061923530      -0.004265070835  xy xz yz
 
Masses
 
            1   1.00800000              # H
 
Atoms # atomic
 
         1    1        1.063469021811       1.093818356495       1.937429319625
         2    1       -0.238823041316       2.159087682465       7.849548289372
         3    1        1.337138694551       1.091581645620       5.880726851034
         4    1       -0.512491714466       2.161328917886       3.906258644511
