 # H4
  
           4  atoms
           1  atom types
 
      0.000000000000       2.542723333333  xlo xhi
      0.000000000000       2.377233568612  ylo yhi
      0.000000000000       8.152548293772  zlo zhi
     -0.902331707378       0.388887153946      -0.342864987264  xy xz yz
 
Masses
 
            1   1.00800000              # H
 
Atoms # atomic
 
         1    1        0.796807024744       1.037751400562       2.081125176528
         2    1        1.471681202860       2.245293812634       0.040102100989
         3    1        0.991392441847       0.866208525591       6.157423781059
         4    1        1.665984066650       2.073976111943       4.116359942779
