 # H4
  
           4  atoms
           1  atom types
 
      0.000000000000       2.419688333333  xlo xhi
      0.000000000000       2.303761611322  ylo yhi
      0.000000000000       7.871059111342  zlo zhi
     -0.739982478621      -0.582487543661      -0.451737730583  xy xz yz
 
Masses
 
            1   1.00800000              # H
 
Atoms # atomic
 
         1    1        0.816896216022       0.805180006344       1.789443034595
         2    1        1.171107544943       1.553573451150       7.689951013176
         3    1        0.525779103768       0.579203812805       5.724996203443
         4    1        1.462225014433       1.779553800475       3.754405715387
