 # H4
  
           4  atoms
           1  atom types
 
      0.000000000000       2.378676666667  xlo xhi
      0.000000000000       2.230578576025  ylo yhi
      0.000000000000       7.641486889767  zlo zhi
     -0.826209356473      -0.086176050760       0.012691285648  xy xz yz
 
Masses
 
            1   1.00800000              # H
 
Atoms # atomic
 
         1    1        0.871651337108       0.886625411727       1.751763803970
         2    1        1.537911574704       1.948644576081       7.480173884936
         3    1        0.828693827220       0.892868486011       5.572530173314
         4    1        1.580869724673       1.942405975646       3.659415157079
