 # H4
  
           4  atoms
           1  atom types
 
      0.000000000000       2.501711666667  xlo xhi
      0.000000000000       2.423898434879  ylo yhi
      0.000000000000       8.036625434664  zlo zhi
     -0.619094209734       0.067458623247      -0.074983156792  xy xz yz
 
Masses
 
            1   1.00800000              # H
 
Atoms # atomic
 
         1    1        1.113507024561       1.333432004992       1.885578427163
         2    1        0.168017144603      -0.002953505250       7.910202537757
         3    1        1.147362583649       1.295828702319       5.903915254371
         4    1        0.134162916497       0.034654570237       3.891873747174
