 # H4
  
           4  atoms
           1  atom types
 
      0.000000000000       2.583735000000  xlo xhi
      0.000000000000       2.355536940425  ylo yhi
      0.000000000000       7.893953142666  zlo zhi
     -0.711681257512      -0.411834724643      -0.113252774699  xy xz yz
 
Masses
 
            1   1.00800000              # H
 
Atoms # atomic
 
         1    1        1.036634159746       1.100526800923       1.782811877624
         2    1       -0.974315869130       2.127094483331       7.700482275211
         3    1        0.830849064923       1.043791719116       5.729812130816
         4    1       -0.768530025769       2.183834162959       3.753489915972
