 # H4
  
           4  atoms
           1  atom types
 
      0.000000000000       2.542723333333  xlo xhi
      0.000000000000       2.452970519098  ylo yhi
      0.000000000000       7.878886487078  zlo zhi
     -0.669610022560       0.301395376245       0.573793343385  xy xz yz
 
Masses
 
            1   1.00800000              # H
 
Atoms # atomic
 
         1    1        1.175334930083       1.226647223797       2.134185138688
         2    1       -0.560799883473       2.240437263455       0.161674391102
         3    1        1.326163490662       1.513432780225       6.073652018887
         4    1       -0.410231562909       2.527450530146       4.101101876868
