 # H4
  
           4  atoms
           1  atom types
 
      0.000000000000       2.419688333333  xlo xhi
      0.000000000000       2.338076138635  ylo yhi
      0.000000000000       7.759775467344  zlo zhi
     -0.623130484260       0.362721876536      -0.292193491985  xy xz yz
 
Masses
 
            1   1.00800000              # H
 
Atoms # atomic
 
         1    1        1.059815266660       1.217017227112       1.943194748818
         2    1        0.018456295081       0.055321138213       0.000503921467
         3    1        1.241300324941       1.070812053036       5.823105761816
         4    1        0.199694649485      -0.090662795738       3.880376135588
