 # H4
  
           4  atoms
           1  atom types
 
      0.000000000000       2.378676666667  xlo xhi
      0.000000000000       2.287372426573  ylo yhi
      0.000000000000       7.894015769277  zlo zhi
     -0.652709787499      -0.425213522175      -0.025273404242  xy xz yz
 
Masses
 
            1   1.00800000              # H
 
Atoms # atomic
 
         1    1        0.710831620291       1.121086488961       1.813498374246
         2    1        1.204800065709       2.181443924161       7.731215719622
         3    1        0.498346376603       1.108344491888       5.760529940932
         4    1        1.417285957441       2.194190470705       3.784192046952
