 # H4
  
           4  atoms
           1  atom types
 
      0.000000000000       2.501711666667  xlo xhi
      0.000000000000       2.408420538502  ylo yhi
      0.000000000000       7.871340042308  zlo zhi
     -0.676809997605       0.446366975165      -0.582831632493  xy xz yz
 
Masses
 
            1   1.00800000              # H
 
Atoms # atomic
 
         1    1        0.986541165612       1.151837466024       2.030980420416
         2    1        2.410925527755       0.025751614397       0.060358955464
         3    1        1.209854692311       0.860309113938       5.966674055590
         4    1        2.633980570681      -0.265547432000       3.996013233938
