 # H4
  
           4  atoms
           1  atom types
 
      0.000000000000       2.583735000000  xlo xhi
      0.000000000000       2.456335611980  ylo yhi
      0.000000000000       8.273612051095  zlo zhi
     -0.801312617861      -0.362516573206       0.564615765583  xy xz yz
 
Masses
 
            1   1.00800000              # H
 
Atoms # atomic
 
         1    1        0.714278119355       1.391282240177       2.007761689215
         2    1        1.281741419157       2.973573517903       8.210041868870
         3    1        0.533156371248       1.673478825378       6.144592535599
         4    1        1.462863785858       2.691382409990       4.073219296098
