 # File generated with Atomsk by kevin on 2022-03-20 17:48:12
 
           8  atoms
           2  atom types
 
      0.000000000000       4.607600000000  xlo xhi
      0.000000000000       4.607600000000  ylo yhi
      0.000000000000       4.607600000000  zlo zhi
      0.000000000000      -0.023038000000       0.000000000000  xy xz yz
 
Masses
 
            1   0.00000000              # XX
            2   0.00000000              # XX
 
Atoms # atomic
 
         1    3        0.008407878029      -0.001069599716      -0.008866849389
         2    5        2.296198838851       2.297462532637       2.313828437953
         3    3       -0.003111121971       2.302730400284       2.294933150611
         4    5        2.307717838851      -0.006337467363       0.010028437953
         5    3        2.312207878029       2.302730400284      -0.008866849389
         6    5       -0.003111121971      -0.001069599716       2.294933150611
         7    3        2.300688878029      -0.001069599716       2.294933150611
         8    5        0.008407878029       2.302730400284      -0.008866849389
