 # File generated with Atomsk by kevin on 2022-03-20 17:48:12
 
           8  atoms
           2  atom types
 
      0.000000000000       4.607600000000  xlo xhi
      0.000000000000       4.584562000000  ylo yhi
      0.000000000000       4.607600000000  zlo zhi
 
Masses
 
            1   0.00000000              # XX
            2   0.00000000              # XX
 
Atoms # atomic
 
         1    3       -0.003499499405       0.004907161197      -0.007401055273
         2    5        2.303812063936       2.288678297382       2.308141496986
         3    3       -0.003499499405       2.297188161197       2.296398944727
         4    5        2.303812063936      -0.003602702618       0.004341496986
         5    3        2.300300500595       2.297188161197      -0.007401055273
         6    5       -0.003499499405       0.004907161197       2.296398944727
         7    3        2.300300500595       0.004907161197       2.296398944727
         8    5       -0.003499499405       2.297188161197      -0.007401055273
