 # File generated with Atomsk by kevin on 2022-03-20 17:48:12
 
           8  atoms
           2  atom types
 
      0.000000000000       4.607600000000  xlo xhi
      0.000000000000       4.607600000000  ylo yhi
      0.000000000000       4.607600000000  zlo zhi
     -0.023038000000       0.000000000000       0.000000000000  xy xz yz
 
Masses
 
            1   0.00000000              # XX
            2   0.00000000              # XX
 
Atoms # atomic
 
         1    3        0.009675805457      -0.006913999308      -0.007201540254
         2    5        2.302052681642       2.306027144525       2.300429738909
         3    3       -0.001843194543       2.296886000692       2.296598459746
         4    5        2.313571681642       0.002227144525      -0.003370261091
         5    3        2.301956805457       2.296886000692      -0.007201540254
         6    5        0.009675805457      -0.006913999308       2.296598459746
         7    3        2.313475805457      -0.006913999308       2.296598459746
         8    5       -0.001843194543       2.296886000692      -0.007201540254
