 # File generated with Atomsk by kevin on 2022-03-20 17:48:12
 
           8  atoms
           2  atom types
 
      0.000000000000       4.607600000000  xlo xhi
      0.000000000000       4.607600000000  ylo yhi
      0.000000000000       4.584562000000  zlo zhi
 
Masses
 
            1   0.00000000              # XX
            2   0.00000000              # XX
 
Atoms # atomic
 
         1    3       -0.001163505238       0.008283043552      -0.002400819674
         2    5        2.303094073607       2.298510920416       2.283915799778
         3    3       -0.001163505238       2.312083043552       2.289880180326
         4    5        2.303094073607      -0.005289079584      -0.008365200222
         5    3        2.302636494762       2.312083043552      -0.002400819674
         6    5       -0.001163505238       0.008283043552       2.289880180326
         7    3        2.302636494762       0.008283043552       2.289880180326
         8    5       -0.001163505238       2.312083043552      -0.002400819674
