 # File generated with Atomsk by kevin on 2022-03-20 17:48:12
 
           8  atoms
           2  atom types
 
      0.000000000000       4.584562000000  xlo xhi
      0.000000000000       4.607600000000  ylo yhi
      0.000000000000       4.607600000000  zlo zhi
 
Masses
 
            1   0.00000000              # XX
            2   0.00000000              # XX
 
Atoms # atomic
 
         1    3        0.003038459731      -0.003687206882      -0.008593587913
         2    5        2.296162535263       2.308911996234       2.300352266732
         3    3        0.003038459731       2.300112793118       2.295206412087
         4    5        2.296162535263       0.005111996234      -0.003447733268
         5    3        2.295319459731       2.300112793118      -0.008593587913
         6    5        0.003038459731      -0.003687206882       2.295206412087
         7    3        2.295319459731      -0.003687206882       2.295206412087
         8    5        0.003038459731       2.300112793118      -0.008593587913
