 # File generated with Atomsk by kevin on 2022-03-20 17:48:12
 
           8  atoms
           2  atom types
 
      0.000000000000       4.607600000000  xlo xhi
      0.000000000000       4.607600000000  ylo yhi
      0.000000000000       4.607600000000  zlo zhi
      0.000000000000       0.000000000000      -0.023038000000  xy xz yz
 
Masses
 
            1   0.00000000              # XX
            2   0.00000000              # XX
 
Atoms # atomic
 
         1    3       -0.003718976781       0.007498140819       0.007199479921
         2    5        2.305513909173       2.284450254744       2.305692319262
         3    3       -0.003718976781       2.299779140819       2.310999479921
         4    5        2.305513909173      -0.007830745256       0.001892319262
         5    3        2.300081023219       2.311298140819       0.007199479921
         6    5       -0.003718976781      -0.004020859181       2.310999479921
         7    3        2.300081023219      -0.004020859181       2.310999479921
         8    5       -0.003718976781       2.311298140819       0.007199479921
