 # File generated with Atomsk by kevin on 2022-03-20 17:48:11
 
           8  atoms
           2  atom types
 
      0.000000000000       4.607600000000  xlo xhi
      0.000000000000       4.630638000000  ylo yhi
      0.000000000000       4.607600000000  zlo zhi
 
Masses
 
            1   0.00000000              # XX
            2   0.00000000              # XX
 
Atoms # atomic
 
         1    3        0.001933847783      -0.006902461014      -0.004267060872
         2    5        2.298354909372       2.315057897726       2.308420550881
         3    3        0.001933847783       2.308416538986       2.299532939128
         4    5        2.298354909372      -0.000261102274       0.004620550881
         5    3        2.305733847783       2.308416538986      -0.004267060872
         6    5        0.001933847783      -0.006902461014       2.299532939128
         7    3        2.305733847783      -0.006902461014       2.299532939128
         8    5        0.001933847783       2.308416538986      -0.004267060872
