 # File generated with Atomsk by kevin on 2022-03-20 17:48:11
 
           8  atoms
           2  atom types
 
      0.000000000000       4.630638000000  xlo xhi
      0.000000000000       4.607600000000  ylo yhi
      0.000000000000       4.607600000000  zlo zhi
 
Masses
 
            1   0.00000000              # XX
            2   0.00000000              # XX
 
Atoms # atomic
 
         1    3       -0.003468762507      -0.005238299958       0.006243164474
         2    5        2.314733933935       2.309970504139       2.303514057796
         3    3       -0.003468762507       2.298561700042       2.310043164474
         4    5        2.314733933935       0.006170504139      -0.000285942204
         5    3        2.311850237493       2.298561700042       0.006243164474
         6    5       -0.003468762507      -0.005238299958       2.310043164474
         7    3        2.311850237493      -0.005238299958       2.310043164474
         8    5       -0.003468762507       2.298561700042       0.006243164474
