 # File generated with Atomsk by kevin on 2022-03-20 17:48:11
 
           8  atoms
           2  atom types
 
      0.000000000000       4.607600000000  xlo xhi
      0.000000000000       4.607600000000  ylo yhi
      0.000000000000       4.607600000000  zlo zhi
      0.000000000000       0.000000000000       0.023038000000  xy xz yz
 
Masses
 
            1   0.00000000              # XX
            2   0.00000000              # XX
 
Atoms # atomic
 
         1    3        0.007365055193      -0.001312585333       0.004251645767
         2    5        2.301912163567       2.310300947488       2.312768628420
         3    3        0.007365055193       2.314006414667       2.308051645767
         4    5        2.301912163567      -0.005018052512       0.008968628420
         5    3        2.311165055193       2.302487414667       0.004251645767
         6    5        0.007365055193       0.010206414667       2.308051645767
         7    3        2.311165055193       0.010206414667       2.308051645767
         8    5        0.007365055193       2.302487414667       0.004251645767
