 # File generated with Atomsk by kevin on 2022-03-20 17:48:11
 
           8  atoms
           2  atom types
 
      0.000000000000       4.607600000000  xlo xhi
      0.000000000000       4.607600000000  ylo yhi
      0.000000000000       4.607600000000  zlo zhi
      0.023038000000       0.000000000000       0.000000000000  xy xz yz
 
Masses
 
            1   0.00000000              # XX
            2   0.00000000              # XX
 
Atoms # atomic
 
         1    3        0.005279735859      -0.002965396965       0.008236563015
         2    5        2.324030668151       2.295411911001       2.301471974651
         3    3        0.016798735859       2.300834603035       2.312036563015
         4    5        2.312511668151      -0.008388088999      -0.002328025349
         5    3        2.320598735859       2.300834603035       0.008236563015
         6    5        0.005279735859      -0.002965396965       2.312036563015
         7    3        2.309079735859      -0.002965396965       2.312036563015
         8    5        0.016798735859       2.300834603035       0.008236563015
