 # File generated with Atomsk by kevin on 2022-03-20 17:48:11
 
           8  atoms
           2  atom types
 
      0.000000000000       4.607600000000  xlo xhi
      0.000000000000       4.607600000000  ylo yhi
      0.000000000000       4.630638000000  zlo zhi
 
Masses
 
            1   0.00000000              # XX
            2   0.00000000              # XX
 
Atoms # atomic
 
         1    3       -0.006852562498       0.006410477238      -0.004209775198
         2    5        2.307324597451       2.306643410365       2.317536066989
         3    3       -0.006852562498       2.310210477238       2.311109224802
         4    5        2.307324597451       0.002843410365       0.002217066989
         5    3        2.296947437502       2.310210477238      -0.004209775198
         6    5       -0.006852562498       0.006410477238       2.311109224802
         7    3        2.296947437502       0.006410477238       2.311109224802
         8    5       -0.006852562498       2.310210477238      -0.004209775198
