 # File generated with Atomsk by kevin on 2022-03-20 17:48:11
 
           8  atoms
           2  atom types
 
      0.000000000000       4.607600000000  xlo xhi
      0.000000000000       4.607600000000  ylo yhi
      0.000000000000       4.607600000000  zlo zhi
      0.000000000000       0.023038000000       0.000000000000  xy xz yz
 
Masses
 
            1   0.00000000              # XX
            2   0.00000000              # XX
 
Atoms # atomic
 
         1    3        0.007557760995       0.000522562390      -0.008971054069
         2    5        2.316406271236       2.303976070134       2.313309010534
         3    3        0.019076760995       2.304322562390       2.294828945931
         4    5        2.304887271236       0.000176070134       0.009509010534
         5    3        2.311357760995       2.304322562390      -0.008971054069
         6    5        0.019076760995       0.000522562390       2.294828945931
         7    3        2.322876760995       0.000522562390       2.294828945931
         8    5        0.007557760995       2.304322562390      -0.008971054069
