LAMMPS data file

2 atoms
1 atom types

0.0 2.45127682400001 xlo xhi
0.0 2.1228681065 ylo yhi
0.0 3.92146243699999 zlo zhi
-1.22563855464035 -3.083753817435e-07 2.12376556047822e-07 xy xz yz


Atoms

1 1 1.2256393595 0.7076216946 2.9410969793
2 1 -0.0000010163 1.4152463838 0.9803654686
