 # H2
  
           2  atoms
           1  atom types
 
      0.000000000000       2.533010000000  xlo xhi
      0.000000000000       2.077480720556  ylo yhi
      0.000000000000       3.917128293651  zlo zhi
      1.083798657298      -0.181721430813      -0.035291679827  xy xz yz
 
Masses
 
            1   1.00800000              # H
 
Atoms # atomic
 
         1    1        1.007638180011       0.798770700513       2.901001907575
         2    1       -0.228910873630       1.508911498933       0.942437760750
