 # H2
  
           2  atoms
           1  atom types
 
      0.000000000000       2.369590000000  xlo xhi
      0.000000000000       2.112088434788  ylo yhi
      0.000000000000       3.900478510994  zlo zhi
     -1.074262170857      -0.150508317877      -0.376532709769  xy xz yz
 
Masses
 
            1   1.00800000              # H
 
Atoms # atomic
 
         1    1        0.966176582962       0.580457771709       3.025008613957
         2    1       -0.106522277621       1.472755012915       1.074769358461
