 # H2
  
           2  atoms
           1  atom types
 
      0.000000000000       2.492155000000  xlo xhi
      0.000000000000       2.127820361881  ylo yhi
      0.000000000000       3.975247443860  zlo zhi
      1.194766449260       0.299815759683       0.050573119304  xy xz yz
 
Masses
 
            1   1.00800000              # H
 
Atoms # atomic
 
         1    1        1.541980865040       0.804742908490       2.916911632747
         2    1        0.128889275257       1.488731221345       0.929287910817
