 # H2
  
           2  atoms
           1  atom types
 
      0.000000000000       2.573865000000  xlo xhi
      0.000000000000       2.122119131275  ylo yhi
      0.000000000000       4.109947163264  zlo zhi
      1.117365281187       0.230115191873       0.099021180913  xy xz yz
 
Masses
 
            1   1.00800000              # H
 
Atoms # atomic
 
         1    1        1.288296986085       0.966280368327       3.020875634335
         2    1       -0.170218203032       1.624144236375       0.965902052703
