 # H2
  
           2  atoms
           1  atom types
 
      0.000000000000       2.328735000000  xlo xhi
      0.000000000000       2.086840120603  ylo yhi
      0.000000000000       3.907979435827  zlo zhi
      1.042667349742       0.324600375930      -0.022216550041  xy xz yz
 
Masses
 
            1   1.00800000              # H
 
Atoms # atomic
 
         1    1        1.426501725110       0.606202152644       2.891947612390
         2    1        0.059264910524       1.312925192425       0.937957894476
