 # H2
  
           2  atoms
           1  atom types
 
      0.000000000000       2.410445000000  xlo xhi
      0.000000000000       2.020181450191  ylo yhi
      0.000000000000       3.916223782668  zlo zhi
      1.022014735888      -0.109445409395       0.171392054742  xy xz yz
 
Masses
 
            1   1.00800000              # H
 
Atoms # atomic
 
         1    1        0.936247858864       0.801374014946       2.764106591080
         2    1       -0.275323723726       1.389073151093       0.805994699746
