 # H2
  
           2  atoms
           1  atom types
 
      0.000000000000       2.328735000000  xlo xhi
      0.000000000000       2.097797644295  ylo yhi
      0.000000000000       3.912866240945  zlo zhi
     -1.011064658573      -0.007613624269      -0.259965503864  xy xz yz
 
Masses
 
            1   1.00800000              # H
 
Atoms # atomic
 
         1    1        1.271268565838       0.532695506125       2.832977638775
         2    1        0.161806598582       1.361945538021       0.876544518302
