 # H2
  
           2  atoms
           1  atom types
 
      0.000000000000       2.328735000000  xlo xhi
      0.000000000000       2.038829732256  ylo yhi
      0.000000000000       3.706196929333  zlo zhi
     -1.125246649892      -0.195403759003      -0.323594070707  xy xz yz
 
Masses
 
            1   1.00800000              # H
 
Atoms # atomic
 
         1    1        0.890685370502       0.423413905738       2.806344409110
         2    1       -0.162942269281       1.264822211064       0.953245944444
