 # H2
  
           2  atoms
           1  atom types
 
      0.000000000000       2.369590000000  xlo xhi
      0.000000000000       2.004004177499  ylo yhi
      0.000000000000       3.785919168135  zlo zhi
      1.105104324057      -0.119584812280       0.150179243890  xy xz yz
 
Masses
 
            1   1.00800000              # H
 
Atoms # atomic
 
         1    1        1.003487151672       0.873298684868       2.665434818622
         2    1       -0.148081423553       1.466211791426       0.772475234554
