 # H2
  
           2  atoms
           1  atom types
 
      0.000000000000       2.492155000000  xlo xhi
      0.000000000000       2.128178081918  ylo yhi
      0.000000000000       3.912852059086  zlo zhi
      1.195353320609      -0.237864851484      -0.105694494339  xy xz yz
 
Masses
 
            1   1.00800000              # H
 
Atoms # atomic
 
         1    1        1.050657879477       0.487164999675       2.806547771575
         2    1       -0.093397780549       1.249406359602       0.850121742032
