 # H2
  
           2  atoms
           1  atom types
 
      0.000000000000       2.410445000000  xlo xhi
      0.000000000000       2.049561336415  ylo yhi
      0.000000000000       3.832732605445  zlo zhi
      1.141767173955      -0.242166435570      -0.348345727758  xy xz yz
 
Masses
 
            1   1.00800000              # H
 
Atoms # atomic
 
         1    1        1.168738585554       0.393968142536       2.897464403508
         2    1        0.063445075242       1.251329484928       0.981098100786
