 # H2
  
           2  atoms
           1  atom types
 
      0.000000000000       2.533010000000  xlo xhi
      0.000000000000       2.023906134084  ylo yhi
      0.000000000000       3.918200664306  zlo zhi
      1.150014826322       0.152792411689      -0.050202421877  xy xz yz
 
Masses
 
            1   1.00800000              # H
 
Atoms # atomic
 
         1    1        1.185870909154       0.732350729590       3.048885146027
         2    1       -0.195862965253       1.432088667827       1.089784813874
