 # H2
  
           2  atoms
           1  atom types
 
      0.000000000000       2.573865000000  xlo xhi
      0.000000000000       2.054894149558  ylo yhi
      0.000000000000       3.909460743051  zlo zhi
      1.237346491294      -0.291987547743       0.094985369958  xy xz yz
 
Masses
 
            1   1.00800000              # H
 
Atoms # atomic
 
         1    1        0.879891274719       0.863682128590       2.919185951799
         2    1       -0.277578727900       1.501155530060       0.964455580274
