 # H2
  
           2  atoms
           1  atom types
 
      0.000000000000       2.492155000000  xlo xhi
      0.000000000000       2.111577855126  ylo yhi
      0.000000000000       3.916301486678  zlo zhi
     -1.245034397814       0.201046566603       0.018033122355  xy xz yz
 
Masses
 
            1   1.00800000              # H
 
Atoms # atomic
 
         1    1        1.431891771576       0.634890341349       2.896775424871
         2    1        0.085636197544       1.329734472932       0.938624681532
