 # H2
  
           2  atoms
           1  atom types
 
      0.000000000000       2.369590000000  xlo xhi
      0.000000000000       2.161541726773  ylo yhi
      0.000000000000       3.908514207421  zlo zhi
     -1.156118096657      -0.103524181945      -0.301598547981  xy xz yz
 
Masses
 
            1   1.00800000              # H
 
Atoms # atomic
 
         1    1        1.101873573189       0.502187068404       2.794164396740
         2    1       -0.021602718530       1.373501692347       0.839907293030
