 # H2
  
           2  atoms
           1  atom types
 
      0.000000000000       2.573865000000  xlo xhi
      0.000000000000       2.249537934868  ylo yhi
      0.000000000000       3.908172450751  zlo zhi
     -1.250743825815       0.162150589219      -0.279387779981  xy xz yz
 
Masses
 
            1   1.00800000              # H
 
Atoms # atomic
 
         1    1        1.382178639071       0.515371852199       2.944031818302
         2    1        0.026231186117       1.404913220171       0.989945592926
