 # H2
  
           2  atoms
           1  atom types
 
      0.000000000000       2.533010000000  xlo xhi
      0.000000000000       2.228447319832  ylo yhi
      0.000000000000       4.050443802070  zlo zhi
     -1.204226807056      -0.064328920858      -0.101127196249  xy xz yz
 
Masses
 
            1   1.00800000              # H
 
Atoms # atomic
 
         1    1        1.321408189545       0.757637670933       3.041330202282
         2    1        0.107824556131       1.551018527967       1.016108301247
