
     Program PWSCF v.6.7MaX starts on  8Dec2021 at 18:49:47 

     This program is part of the open-source Quantum ESPRESSO suite
     for quantum simulation of materials; please cite
         "P. Giannozzi et al., J. Phys.:Condens. Matter 21 395502 (2009);
         "P. Giannozzi et al., J. Phys.:Condens. Matter 29 465901 (2017);
          URL http://www.quantum-espresso.org", 
     in publications or presentations arising from this work. More details at
     http://www.quantum-espresso.org/quote

     Parallel version (MPI), running on    12 processors

     MPI processes distributed on     1 nodes
     R & G space division:  proc/nbgrp/npool/nimage =      12
     Reading input from Opt-B1-CoFe.in

     Current dimensions of program PWSCF are:
     Max number of different atomic species (ntypx) = 10
     Max number of k-points (npk) =  40000
     Max angular momentum in pseudopotentials (lmaxx) =  3
     file Fe.pbe-spn-kjpaw_psl.0.2.1.UPF: wavefunction(s)  3D renormalized

     Subspace diagonalization in iterative solution of the eigenvalue problem:
     a serial algorithm will be used


     Parallelization info
     --------------------
     sticks:   dense  smooth     PW     G-vecs:    dense   smooth      PW
     Min         139      46     15                 3820      731     140
     Max         140      47     16                 3824      735     143
     Sum        1675     559    187                45863     8801    1687



     bravais-lattice index     =            2
     lattice parameter (alat)  =       6.7439  a.u.
     unit-cell volume          =      76.6775 (a.u.)^3
     number of atoms/cell      =            2
     number of atomic types    =            2
     number of electrons       =        33.00
     number of Kohn-Sham states=           21
     kinetic-energy cutoff     =      90.0000  Ry
     charge density cutoff     =    1080.0000  Ry
     scf convergence threshold =      1.0E-08
     mixing beta               =       0.2000
     number of iterations used =            8  plain     mixing
     energy convergence thresh.=      1.0E-05
     force convergence thresh. =      1.0E-04
     press convergence thresh. =      1.0E-01
     Exchange-correlation= SLA  PW   PBE  PBE
                           (   1   4   3   4   0   0   0)
     nstep                     =          100


     celldm(1)=   6.743870  celldm(2)=   0.000000  celldm(3)=   0.000000
     celldm(4)=   0.000000  celldm(5)=   0.000000  celldm(6)=   0.000000

     crystal axes: (cart. coord. in units of alat)
               a(1) = (  -0.500000   0.000000   0.500000 )  
               a(2) = (   0.000000   0.500000   0.500000 )  
               a(3) = (  -0.500000   0.500000   0.000000 )  

     reciprocal axes: (cart. coord. in units 2 pi/alat)
               b(1) = ( -1.000000 -1.000000  1.000000 )  
               b(2) = (  1.000000  1.000000  1.000000 )  
               b(3) = ( -1.000000  1.000000 -1.000000 )  


     PseudoPot. # 1 for Fe read from file:
     /opt/QEpot/SSSP_efficiency_pseudos/Fe.pbe-spn-kjpaw_psl.0.2.1.UPF
     MD5 check sum: e86618425769142926afa95317d90200
     Pseudo is Projector augmented-wave + core cor, Zval = 16.0
     Generated using "atomic" code by A. Dal Corso  v.5.0.99 svn rev. 10869
     Shape of augmentation charge: PSQ
     Using radial grid of 1191 points,  6 beta functions with: 
                l(1) =   0
                l(2) =   0
                l(3) =   1
                l(4) =   1
                l(5) =   2
                l(6) =   2
     Q(r) pseudized with 0 coefficients 


     PseudoPot. # 2 for Co read from file:
     /opt/QEpot/SSSP_efficiency_pseudos/Co_pbe_v1.2.uspp.F.UPF
     MD5 check sum: 5f91765df6ddd3222702df6e7b74a16d
     Pseudo is Ultrasoft + core correction, Zval = 17.0
     Generated by new atomic code, or converted to UPF format
     Using radial grid of  863 points,  6 beta functions with: 
                l(1) =   0
                l(2) =   0
                l(3) =   1
                l(4) =   1
                l(5) =   2
                l(6) =   2
     Q(r) pseudized with  8 coefficients,  rinner =    1.200   1.200   1.200
                                                       1.200   1.200

     atomic species   valence    mass     pseudopotential
        Fe            16.00    55.84500     Fe( 1.00)
        Co            17.00    58.93300     Co( 1.00)

     Starting magnetic structure 
     atomic species   magnetization
        Fe           0.200
        Co           0.200

     No symmetry found



   Cartesian axes

     site n.     atom                  positions (alat units)
         1           Fe  tau(   1) = (   0.5000000   0.5000000   0.5000000  )
         2           Co  tau(   2) = (   0.0000000   0.0000000   0.0000000  )

     number of k points=   504  Gaussian smearing, width (Ry)=  0.0100

     Number of k-points >= 100: set verbosity='high' to print them.

     Dense  grid:    45863 G-vectors     FFT dimensions: (  50,  50,  50)

     Smooth grid:     8801 G-vectors     FFT dimensions: (  30,  30,  30)

     Estimated max dynamical RAM per process >      56.34 MB

     Estimated total dynamical RAM >     676.02 MB

     Check: negative core charge=   -0.000018
     Generating pointlists ...
     new r_m :   0.2063 (alat units)  1.3909 (a.u.) for type    1
     new r_m :   0.2063 (alat units)  1.3909 (a.u.) for type    2

     Initial potential from superposition of free atoms

     starting charge   31.99955, renormalised to   33.00000
     Starting wfcs are   26 randomized atomic wfcs
     Checking if some PAW data can be deallocated... 

     total cpu time spent up to now is        8.5 secs

     Self-consistent Calculation

     iteration #  1     ecut=    90.00 Ry     beta= 0.20
     Davidson diagonalization with overlap
     ethr =  1.00E-02,  avg # of iterations =  3.2

     total cpu time spent up to now is       18.5 secs

     total energy              =    -626.11753944 Ry
     estimated scf accuracy    <       2.03971417 Ry

     total magnetization       =     2.68 Bohr mag/cell
     absolute magnetization    =     2.68 Bohr mag/cell

     iteration #  2     ecut=    90.00 Ry     beta= 0.20
     Davidson diagonalization with overlap
     ethr =  6.18E-03,  avg # of iterations =  1.9

     total cpu time spent up to now is       26.2 secs

     total energy              =    -626.33322866 Ry
     estimated scf accuracy    <       0.87637734 Ry

     total magnetization       =     2.58 Bohr mag/cell
     absolute magnetization    =     2.58 Bohr mag/cell

     iteration #  3     ecut=    90.00 Ry     beta= 0.20
     Davidson diagonalization with overlap
     ethr =  2.66E-03,  avg # of iterations =  1.0

     total cpu time spent up to now is       33.2 secs

     total energy              =    -626.41240888 Ry
     estimated scf accuracy    <       0.22914237 Ry

     total magnetization       =     2.39 Bohr mag/cell
     absolute magnetization    =     2.40 Bohr mag/cell

     iteration #  4     ecut=    90.00 Ry     beta= 0.20
     Davidson diagonalization with overlap
     ethr =  6.94E-04,  avg # of iterations =  2.0

     total cpu time spent up to now is       41.4 secs

     total energy              =    -626.47032845 Ry
     estimated scf accuracy    <       0.08078870 Ry

     total magnetization       =     1.98 Bohr mag/cell
     absolute magnetization    =     2.01 Bohr mag/cell

     iteration #  5     ecut=    90.00 Ry     beta= 0.20
     Davidson diagonalization with overlap
     ethr =  2.45E-04,  avg # of iterations =  1.6

     total cpu time spent up to now is       49.1 secs

     total energy              =    -626.50779099 Ry
     estimated scf accuracy    <       0.01597512 Ry

     total magnetization       =     0.80 Bohr mag/cell
     absolute magnetization    =     0.84 Bohr mag/cell

     iteration #  6     ecut=    90.00 Ry     beta= 0.20
     Davidson diagonalization with overlap
     ethr =  4.84E-05,  avg # of iterations =  2.3

     total cpu time spent up to now is       57.9 secs

     total energy              =    -626.51092635 Ry
     estimated scf accuracy    <       0.00349121 Ry

     total magnetization       =     0.66 Bohr mag/cell
     absolute magnetization    =     0.70 Bohr mag/cell

     iteration #  7     ecut=    90.00 Ry     beta= 0.20
     Davidson diagonalization with overlap
     ethr =  1.06E-05,  avg # of iterations =  2.3

     total cpu time spent up to now is       67.1 secs

     total energy              =    -626.51519721 Ry
     estimated scf accuracy    <       0.00044725 Ry

     total magnetization       =     0.23 Bohr mag/cell
     absolute magnetization    =     0.24 Bohr mag/cell

     iteration #  8     ecut=    90.00 Ry     beta= 0.20
     Davidson diagonalization with overlap
     ethr =  1.36E-06,  avg # of iterations =  2.9

     total cpu time spent up to now is       75.3 secs

     total energy              =    -626.51525544 Ry
     estimated scf accuracy    <       0.00028724 Ry

     total magnetization       =     0.25 Bohr mag/cell
     absolute magnetization    =     0.25 Bohr mag/cell

     iteration #  9     ecut=    90.00 Ry     beta= 0.20
     Davidson diagonalization with overlap
     ethr =  8.70E-07,  avg # of iterations =  2.0

     total cpu time spent up to now is       83.5 secs

     total energy              =    -626.51528067 Ry
     estimated scf accuracy    <       0.00003281 Ry

     total magnetization       =     0.23 Bohr mag/cell
     absolute magnetization    =     0.23 Bohr mag/cell

     iteration # 10     ecut=    90.00 Ry     beta= 0.20
     Davidson diagonalization with overlap
     ethr =  9.94E-08,  avg # of iterations =  2.9

     total cpu time spent up to now is       93.3 secs

     total energy              =    -626.51533893 Ry
     estimated scf accuracy    <       0.00001317 Ry

     total magnetization       =     0.15 Bohr mag/cell
     absolute magnetization    =     0.15 Bohr mag/cell

     iteration # 11     ecut=    90.00 Ry     beta= 0.20
     Davidson diagonalization with overlap
     ethr =  3.99E-08,  avg # of iterations =  2.2

     total cpu time spent up to now is      102.5 secs

     total energy              =    -626.51537538 Ry
     estimated scf accuracy    <       0.00000784 Ry

     total magnetization       =     0.09 Bohr mag/cell
     absolute magnetization    =     0.09 Bohr mag/cell

     iteration # 12     ecut=    90.00 Ry     beta= 0.20
     Davidson diagonalization with overlap
     ethr =  2.38E-08,  avg # of iterations =  2.0

     total cpu time spent up to now is      111.0 secs

     total energy              =    -626.51540956 Ry
     estimated scf accuracy    <       0.00000164 Ry

     total magnetization       =     0.03 Bohr mag/cell
     absolute magnetization    =     0.03 Bohr mag/cell

     iteration # 13     ecut=    90.00 Ry     beta= 0.20
     Davidson diagonalization with overlap
     ethr =  4.98E-09,  avg # of iterations =  2.0

     total cpu time spent up to now is      119.8 secs

     total energy              =    -626.51541652 Ry
     estimated scf accuracy    <       0.00000106 Ry

     total magnetization       =     0.05 Bohr mag/cell
     absolute magnetization    =     0.05 Bohr mag/cell

     iteration # 14     ecut=    90.00 Ry     beta= 0.20
     Davidson diagonalization with overlap
     ethr =  3.20E-09,  avg # of iterations =  1.0

     total cpu time spent up to now is      126.8 secs

     total energy              =    -626.51540061 Ry
     estimated scf accuracy    <       0.00000125 Ry

     total magnetization       =     0.05 Bohr mag/cell
     absolute magnetization    =     0.05 Bohr mag/cell

     iteration # 15     ecut=    90.00 Ry     beta= 0.20
     Davidson diagonalization with overlap
     ethr =  3.20E-09,  avg # of iterations =  2.4

     total cpu time spent up to now is      136.8 secs

     total energy              =    -626.51542019 Ry
     estimated scf accuracy    <       0.00000013 Ry

     total magnetization       =     0.02 Bohr mag/cell
     absolute magnetization    =     0.02 Bohr mag/cell

     iteration # 16     ecut=    90.00 Ry     beta= 0.20
     Davidson diagonalization with overlap
     ethr =  3.88E-10,  avg # of iterations =  3.6

     total cpu time spent up to now is      148.2 secs

     total energy              =    -626.51542169 Ry
     estimated scf accuracy    <       0.00000003 Ry

     total magnetization       =     0.01 Bohr mag/cell
     absolute magnetization    =     0.01 Bohr mag/cell

     iteration # 17     ecut=    90.00 Ry     beta= 0.20
     Davidson diagonalization with overlap
     ethr =  9.49E-11,  avg # of iterations =  2.0

     total cpu time spent up to now is      156.3 secs

     total energy              =    -626.51542117 Ry
     estimated scf accuracy    <       0.00000002 Ry

     total magnetization       =     0.00 Bohr mag/cell
     absolute magnetization    =     0.00 Bohr mag/cell

     iteration # 18     ecut=    90.00 Ry     beta= 0.20
     Davidson diagonalization with overlap
     ethr =  7.57E-11,  avg # of iterations =  3.1

     Magnetic moment per site:
     atom:    1    charge:   13.2618    magn:   -0.0015    constr:    0.0000
     atom:    2    charge:   14.3438    magn:   -0.0010    constr:    0.0000

     total cpu time spent up to now is      167.3 secs

     End of self-consistent calculation

     Number of k-points >= 100: set verbosity='high' to print the bands.

     the Fermi energy is    40.3141 ev

!    total energy              =    -626.51542207 Ry
     estimated scf accuracy    <          5.6E-09 Ry
     smearing contrib. (-TS)   =      -0.00207926 Ry
     internal energy E=F+TS    =    -626.51334281 Ry

     The total energy is F=E-TS. E is the sum of the following terms:
     one-electron contribution =    -137.24920286 Ry
     hartree contribution      =     114.81272954 Ry
     xc contribution           =     -69.49311077 Ry
     ewald contribution        =    -458.42584319 Ry
     one-center paw contrib.   =     -76.15791553 Ry

     total magnetization       =    -0.00 Bohr mag/cell
     absolute magnetization    =     0.00 Bohr mag/cell

     convergence has been achieved in  18 iterations

     Forces acting on atoms (cartesian axes, Ry/au):

     atom    1 type  1   force =    -0.00000005    0.00000012    0.00000011
     atom    2 type  2   force =     0.00000005   -0.00000012   -0.00000011

     Total force =     0.000000     Total SCF correction =     0.000001
     SCF correction compared to forces is large: reduce conv_thr to get better values


     Computing stress (Cartesian axis) and pressure

          total   stress  (Ry/bohr**3)                   (kbar)     P=     7425.65
   0.05047854   0.00000001   0.00000000         7425.65        0.00        0.00
   0.00000001   0.05047850  -0.00000002            0.00     7425.64       -0.00
   0.00000000  -0.00000002   0.05047851            0.00       -0.00     7425.65


     BFGS Geometry Optimization
     Energy error            =      0.0E+00
     Gradient error          =      1.2E-07
     Cell gradient error     =      5.0E-02


     number of scf cycles    =   1
     number of bfgs steps    =   0

     enthalpy new            =    -626.5154220666 Ry

     new trust radius        =       0.5000000000 bohr
     new conv_thr            =       0.0000000100 Ry

     new unit-cell volume =    162.88602 a.u.^3 (    24.13722 Ang^3 )
     density =      7.89624 g/cm^3

CELL_PARAMETERS (alat=  6.74387050)
  -0.642750018  -0.000000092   0.642749935
   0.000000032   0.642749823   0.642749875
  -0.642749991   0.642749856  -0.000000065

ATOMIC_POSITIONS (alat)
Fe            0.6427500509        0.6427498578        0.6427498821
Co            0.0000000023       -0.0000000050       -0.0000000046



     Writing output data file ./pwscf.save/
     NEW-OLD atomic charge density approx. for the potential

     Check: negative core charge=   -0.000038
     extrapolated charge   49.93599, renormalised to   33.00000
     Generating pointlists ...

     total cpu time spent up to now is      171.5 secs

     Self-consistent Calculation

     iteration #  1     ecut=    90.00 Ry     beta= 0.20
     Davidson diagonalization with overlap
     c_bands:  1 eigenvalues not converged
     c_bands:  3 eigenvalues not converged
     c_bands:  4 eigenvalues not converged
     c_bands:  3 eigenvalues not converged
     c_bands:  1 eigenvalues not converged
     c_bands:  1 eigenvalues not converged
     c_bands:  1 eigenvalues not converged
     c_bands:  5 eigenvalues not converged
     c_bands:  1 eigenvalues not converged
     c_bands:  3 eigenvalues not converged
     c_bands:  4 eigenvalues not converged
     c_bands:  3 eigenvalues not converged
     c_bands:  4 eigenvalues not converged
     c_bands:  4 eigenvalues not converged
     c_bands:  1 eigenvalues not converged
     c_bands:  1 eigenvalues not converged
     c_bands:  1 eigenvalues not converged
     c_bands:  1 eigenvalues not converged
     c_bands:  1 eigenvalues not converged
     c_bands:  4 eigenvalues not converged
     c_bands:  3 eigenvalues not converged
     c_bands:  1 eigenvalues not converged
     c_bands:  2 eigenvalues not converged
     c_bands:  3 eigenvalues not converged
     c_bands:  1 eigenvalues not converged
     c_bands:  1 eigenvalues not converged
     c_bands:  1 eigenvalues not converged
     c_bands:  1 eigenvalues not converged
     c_bands:  1 eigenvalues not converged
     c_bands:  1 eigenvalues not converged
     c_bands:  1 eigenvalues not converged
     c_bands:  1 eigenvalues not converged
     c_bands:  1 eigenvalues not converged
     c_bands:  1 eigenvalues not converged
     c_bands:  1 eigenvalues not converged
     c_bands:  1 eigenvalues not converged
     c_bands:  1 eigenvalues not converged
     c_bands:  1 eigenvalues not converged
     c_bands:  1 eigenvalues not converged
     c_bands:  1 eigenvalues not converged
     c_bands:  1 eigenvalues not converged
     c_bands:  2 eigenvalues not converged
     c_bands:  1 eigenvalues not converged
     c_bands:  1 eigenvalues not converged
     c_bands:  1 eigenvalues not converged
     c_bands:  1 eigenvalues not converged
     c_bands:  1 eigenvalues not converged
     c_bands:  1 eigenvalues not converged
     c_bands:  1 eigenvalues not converged
     c_bands:  1 eigenvalues not converged
     c_bands:  1 eigenvalues not converged
     c_bands:  1 eigenvalues not converged
     c_bands:  1 eigenvalues not converged
     c_bands:  1 eigenvalues not converged
     c_bands:  1 eigenvalues not converged
     c_bands:  1 eigenvalues not converged
     c_bands:  1 eigenvalues not converged
     c_bands:  1 eigenvalues not converged
     c_bands:  1 eigenvalues not converged
     c_bands:  1 eigenvalues not converged
     c_bands:  1 eigenvalues not converged
     c_bands:  1 eigenvalues not converged
     c_bands:  1 eigenvalues not converged
     c_bands:  1 eigenvalues not converged
     c_bands:  1 eigenvalues not converged
     c_bands:  1 eigenvalues not converged
     c_bands:  1 eigenvalues not converged
     c_bands:  1 eigenvalues not converged
     c_bands:  1 eigenvalues not converged
     c_bands:  1 eigenvalues not converged
     c_bands:  1 eigenvalues not converged
     c_bands:  1 eigenvalues not converged
     c_bands:  1 eigenvalues not converged
     c_bands:  1 eigenvalues not converged
     c_bands:  1 eigenvalues not converged
     c_bands:  1 eigenvalues not converged
     c_bands:  1 eigenvalues not converged
     c_bands:  1 eigenvalues not converged
     c_bands:  1 eigenvalues not converged
     c_bands:  1 eigenvalues not converged
     c_bands:  1 eigenvalues not converged
     c_bands:  1 eigenvalues not converged
     c_bands:  5 eigenvalues not converged
     c_bands:  1 eigenvalues not converged
     c_bands:  1 eigenvalues not converged
     c_bands:  5 eigenvalues not converged
     c_bands:  1 eigenvalues not converged
     c_bands:  3 eigenvalues not converged
     c_bands:  3 eigenvalues not converged
     c_bands:  4 eigenvalues not converged
     c_bands:  1 eigenvalues not converged
     c_bands:  1 eigenvalues not converged
     c_bands:  1 eigenvalues not converged
     c_bands:  3 eigenvalues not converged
     c_bands:  5 eigenvalues not converged
     c_bands:  3 eigenvalues not converged
     c_bands:  3 eigenvalues not converged
     c_bands:  3 eigenvalues not converged
     c_bands:  1 eigenvalues not converged
     c_bands:  1 eigenvalues not converged
     c_bands:  1 eigenvalues not converged
     c_bands:  1 eigenvalues not converged
     c_bands:  1 eigenvalues not converged
     c_bands:  1 eigenvalues not converged
     c_bands:  3 eigenvalues not converged
     c_bands:  3 eigenvalues not converged
     c_bands:  1 eigenvalues not converged
     c_bands:  4 eigenvalues not converged
     c_bands:  3 eigenvalues not converged
     c_bands:  1 eigenvalues not converged
     c_bands:  1 eigenvalues not converged
     c_bands:  1 eigenvalues not converged
     c_bands:  1 eigenvalues not converged
     c_bands:  1 eigenvalues not converged
     c_bands:  1 eigenvalues not converged
     c_bands:  1 eigenvalues not converged
     c_bands:  1 eigenvalues not converged
     c_bands:  1 eigenvalues not converged
     c_bands:  1 eigenvalues not converged
     c_bands:  1 eigenvalues not converged
     c_bands:  1 eigenvalues not converged
     c_bands:  1 eigenvalues not converged
     c_bands:  1 eigenvalues not converged
     c_bands:  1 eigenvalues not converged
     c_bands:  1 eigenvalues not converged
     c_bands:  1 eigenvalues not converged
     c_bands:  1 eigenvalues not converged
     c_bands:  1 eigenvalues not converged
     c_bands:  1 eigenvalues not converged
     c_bands:  2 eigenvalues not converged
     c_bands:  1 eigenvalues not converged
     c_bands:  1 eigenvalues not converged
     c_bands:  1 eigenvalues not converged
     c_bands:  1 eigenvalues not converged
     c_bands:  1 eigenvalues not converged
     c_bands:  1 eigenvalues not converged
     c_bands:  1 eigenvalues not converged
     c_bands:  1 eigenvalues not converged
     c_bands:  1 eigenvalues not converged
     c_bands:  1 eigenvalues not converged
     c_bands:  1 eigenvalues not converged
     c_bands:  1 eigenvalues not converged
     c_bands:  1 eigenvalues not converged
     c_bands:  1 eigenvalues not converged
     c_bands:  1 eigenvalues not converged
     c_bands:  1 eigenvalues not converged
     c_bands:  1 eigenvalues not converged
     c_bands:  1 eigenvalues not converged
     c_bands:  1 eigenvalues not converged
     c_bands:  1 eigenvalues not converged
     c_bands:  1 eigenvalues not converged
     c_bands:  1 eigenvalues not converged
     c_bands:  1 eigenvalues not converged
     c_bands:  1 eigenvalues not converged
     c_bands:  1 eigenvalues not converged
     c_bands:  1 eigenvalues not converged
     c_bands:  1 eigenvalues not converged
     c_bands:  1 eigenvalues not converged
     c_bands:  1 eigenvalues not converged
     c_bands:  1 eigenvalues not converged
     c_bands:  1 eigenvalues not converged
     c_bands:  1 eigenvalues not converged
     c_bands:  1 eigenvalues not converged
     c_bands:  1 eigenvalues not converged
     c_bands:  1 eigenvalues not converged
     c_bands:  1 eigenvalues not converged
     ethr =  1.00E-06,  avg # of iterations = 33.6

     total cpu time spent up to now is      262.3 secs

     total energy              =    -554.06935381 Ry
     estimated scf accuracy    <      67.49533450 Ry

     total magnetization       =    -0.00 Bohr mag/cell
     absolute magnetization    =     0.00 Bohr mag/cell

     iteration #  2     ecut=    90.00 Ry     beta= 0.20
     Davidson diagonalization with overlap
     ethr =  1.00E-02,  avg # of iterations =  6.3

     total cpu time spent up to now is      280.3 secs

     total energy              =    -640.13233899 Ry
     estimated scf accuracy    <      57.22500952 Ry

     total magnetization       =    -0.02 Bohr mag/cell
     absolute magnetization    =     0.02 Bohr mag/cell

     iteration #  3     ecut=    90.00 Ry     beta= 0.20
     Davidson diagonalization with overlap
     ethr =  1.00E-02,  avg # of iterations =  2.0

     total cpu time spent up to now is      288.8 secs

     total energy              =    -621.95640319 Ry
     estimated scf accuracy    <      38.32681486 Ry

     total magnetization       =    -0.06 Bohr mag/cell
     absolute magnetization    =     0.06 Bohr mag/cell

     iteration #  4     ecut=    90.00 Ry     beta= 0.20
     Davidson diagonalization with overlap
     ethr =  1.00E-02,  avg # of iterations =  3.1

     total cpu time spent up to now is      300.1 secs

     total energy              =    -629.17912252 Ry
     estimated scf accuracy    <      20.00264521 Ry

     total magnetization       =    -0.00 Bohr mag/cell
     absolute magnetization    =     0.01 Bohr mag/cell

     iteration #  5     ecut=    90.00 Ry     beta= 0.20
     Davidson diagonalization with overlap
     ethr =  1.00E-02,  avg # of iterations =  1.0

     total cpu time spent up to now is      307.1 secs

     total energy              =    -627.48239427 Ry
     estimated scf accuracy    <      18.89136132 Ry

     total magnetization       =    -0.00 Bohr mag/cell
     absolute magnetization    =     0.01 Bohr mag/cell

     iteration #  6     ecut=    90.00 Ry     beta= 0.20
     Davidson diagonalization with overlap
     ethr =  1.00E-02,  avg # of iterations =  2.0

     total cpu time spent up to now is      315.1 secs

     total energy              =    -627.62604657 Ry
     estimated scf accuracy    <       4.40087200 Ry

     total magnetization       =    -0.05 Bohr mag/cell
     absolute magnetization    =     0.05 Bohr mag/cell

     iteration #  7     ecut=    90.00 Ry     beta= 0.20
     Davidson diagonalization with overlap
     ethr =  1.00E-02,  avg # of iterations =  1.0

     total cpu time spent up to now is      322.1 secs

     total energy              =    -627.58761781 Ry
     estimated scf accuracy    <       2.29887073 Ry

     total magnetization       =    -0.16 Bohr mag/cell
     absolute magnetization    =     0.16 Bohr mag/cell

     iteration #  8     ecut=    90.00 Ry     beta= 0.20
     Davidson diagonalization with overlap
     ethr =  6.97E-03,  avg # of iterations =  1.0

     total cpu time spent up to now is      329.2 secs

     total energy              =    -627.64008974 Ry
     estimated scf accuracy    <       1.85605391 Ry

     total magnetization       =    -0.08 Bohr mag/cell
     absolute magnetization    =     0.08 Bohr mag/cell

     iteration #  9     ecut=    90.00 Ry     beta= 0.20
     Davidson diagonalization with overlap
     ethr =  5.62E-03,  avg # of iterations =  1.0

     total cpu time spent up to now is      336.3 secs

     total energy              =    -627.61526438 Ry
     estimated scf accuracy    <       0.69139832 Ry

     total magnetization       =    -0.14 Bohr mag/cell
     absolute magnetization    =     0.14 Bohr mag/cell

     iteration # 10     ecut=    90.00 Ry     beta= 0.20
     Davidson diagonalization with overlap
     ethr =  2.10E-03,  avg # of iterations =  1.1

     total cpu time spent up to now is      343.4 secs

     total energy              =    -627.53411237 Ry
     estimated scf accuracy    <       0.32199049 Ry

     total magnetization       =    -0.19 Bohr mag/cell
     absolute magnetization    =     0.19 Bohr mag/cell

     iteration # 11     ecut=    90.00 Ry     beta= 0.20
     Davidson diagonalization with overlap
     ethr =  9.76E-04,  avg # of iterations =  2.0

     total cpu time spent up to now is      351.3 secs

     total energy              =    -627.60234103 Ry
     estimated scf accuracy    <       0.53856675 Ry

     total magnetization       =    -0.54 Bohr mag/cell
     absolute magnetization    =     0.55 Bohr mag/cell

     iteration # 12     ecut=    90.00 Ry     beta= 0.20
     Davidson diagonalization with overlap
     ethr =  9.76E-04,  avg # of iterations =  1.0

     total cpu time spent up to now is      358.4 secs

     total energy              =    -627.57956987 Ry
     estimated scf accuracy    <       0.49975099 Ry

     total magnetization       =    -0.49 Bohr mag/cell
     absolute magnetization    =     0.50 Bohr mag/cell

     iteration # 13     ecut=    90.00 Ry     beta= 0.20
     Davidson diagonalization with overlap
     ethr =  9.76E-04,  avg # of iterations =  1.0

     total cpu time spent up to now is      365.4 secs

     total energy              =    -627.59398502 Ry
     estimated scf accuracy    <       0.07792162 Ry

     total magnetization       =    -0.19 Bohr mag/cell
     absolute magnetization    =     0.19 Bohr mag/cell

     iteration # 14     ecut=    90.00 Ry     beta= 0.20
     Davidson diagonalization with overlap
     ethr =  2.36E-04,  avg # of iterations =  1.0

     total cpu time spent up to now is      372.4 secs

     total energy              =    -627.57409545 Ry
     estimated scf accuracy    <       0.30105897 Ry

     total magnetization       =    -0.16 Bohr mag/cell
     absolute magnetization    =     0.17 Bohr mag/cell

     iteration # 15     ecut=    90.00 Ry     beta= 0.20
     Davidson diagonalization with overlap
     ethr =  2.36E-04,  avg # of iterations =  1.0

     total cpu time spent up to now is      379.4 secs

     total energy              =    -627.58509644 Ry
     estimated scf accuracy    <       0.00248552 Ry

     total magnetization       =    -0.12 Bohr mag/cell
     absolute magnetization    =     0.12 Bohr mag/cell

     iteration # 16     ecut=    90.00 Ry     beta= 0.20
     Davidson diagonalization with overlap
     ethr =  7.53E-06,  avg # of iterations =  4.5

     total cpu time spent up to now is      391.2 secs

     total energy              =    -627.58535550 Ry
     estimated scf accuracy    <       0.00254515 Ry

     total magnetization       =    -0.18 Bohr mag/cell
     absolute magnetization    =     0.18 Bohr mag/cell

     iteration # 17     ecut=    90.00 Ry     beta= 0.20
     Davidson diagonalization with overlap
     ethr =  7.53E-06,  avg # of iterations =  1.9

     total cpu time spent up to now is      399.1 secs

     total energy              =    -627.58550212 Ry
     estimated scf accuracy    <       0.00026739 Ry

     total magnetization       =    -0.11 Bohr mag/cell
     absolute magnetization    =     0.11 Bohr mag/cell

     iteration # 18     ecut=    90.00 Ry     beta= 0.20
     Davidson diagonalization with overlap
     ethr =  8.10E-07,  avg # of iterations =  4.1

     total cpu time spent up to now is      408.5 secs

     total energy              =    -627.58554644 Ry
     estimated scf accuracy    <       0.00007675 Ry

     total magnetization       =    -0.07 Bohr mag/cell
     absolute magnetization    =     0.08 Bohr mag/cell

     iteration # 19     ecut=    90.00 Ry     beta= 0.20
     Davidson diagonalization with overlap
     ethr =  2.33E-07,  avg # of iterations =  3.1

     total cpu time spent up to now is      416.9 secs

     total energy              =    -627.58555129 Ry
     estimated scf accuracy    <       0.00004585 Ry

     total magnetization       =    -0.06 Bohr mag/cell
     absolute magnetization    =     0.07 Bohr mag/cell

     iteration # 20     ecut=    90.00 Ry     beta= 0.20
     Davidson diagonalization with overlap
     ethr =  1.39E-07,  avg # of iterations =  2.0

     total cpu time spent up to now is      424.6 secs

     total energy              =    -627.58556081 Ry
     estimated scf accuracy    <       0.00002295 Ry

     total magnetization       =    -0.06 Bohr mag/cell
     absolute magnetization    =     0.07 Bohr mag/cell

     iteration # 21     ecut=    90.00 Ry     beta= 0.20
     Davidson diagonalization with overlap
     ethr =  6.96E-08,  avg # of iterations =  1.1

     total cpu time spent up to now is      431.7 secs

     total energy              =    -627.58555331 Ry
     estimated scf accuracy    <       0.00004135 Ry

     total magnetization       =    -0.07 Bohr mag/cell
     absolute magnetization    =     0.07 Bohr mag/cell

     iteration # 22     ecut=    90.00 Ry     beta= 0.20
     Davidson diagonalization with overlap
     ethr =  6.96E-08,  avg # of iterations =  2.1

     total cpu time spent up to now is      440.4 secs

     total energy              =    -627.58558325 Ry
     estimated scf accuracy    <       0.00000456 Ry

     total magnetization       =    -0.01 Bohr mag/cell
     absolute magnetization    =     0.05 Bohr mag/cell

     iteration # 23     ecut=    90.00 Ry     beta= 0.20
     Davidson diagonalization with overlap
     ethr =  1.38E-08,  avg # of iterations =  3.2

     total cpu time spent up to now is      450.2 secs

     total energy              =    -627.58558886 Ry
     estimated scf accuracy    <       0.00000586 Ry

     total magnetization       =    -0.02 Bohr mag/cell
     absolute magnetization    =     0.03 Bohr mag/cell

     iteration # 24     ecut=    90.00 Ry     beta= 0.20
     Davidson diagonalization with overlap
     ethr =  1.38E-08,  avg # of iterations =  1.0

     total cpu time spent up to now is      457.3 secs

     total energy              =    -627.58558973 Ry
     estimated scf accuracy    <       0.00000259 Ry

     total magnetization       =    -0.02 Bohr mag/cell
     absolute magnetization    =     0.03 Bohr mag/cell

     iteration # 25     ecut=    90.00 Ry     beta= 0.20
     Davidson diagonalization with overlap
     ethr =  7.85E-09,  avg # of iterations =  1.1

     total cpu time spent up to now is      464.4 secs

     total energy              =    -627.58558755 Ry
     estimated scf accuracy    <       0.00000141 Ry

     total magnetization       =    -0.01 Bohr mag/cell
     absolute magnetization    =     0.03 Bohr mag/cell

     iteration # 26     ecut=    90.00 Ry     beta= 0.20
     Davidson diagonalization with overlap
     ethr =  4.26E-09,  avg # of iterations =  3.3

     total cpu time spent up to now is      475.0 secs

     total energy              =    -627.58559209 Ry
     estimated scf accuracy    <       0.00000106 Ry

     total magnetization       =    -0.00 Bohr mag/cell
     absolute magnetization    =     0.01 Bohr mag/cell

     iteration # 27     ecut=    90.00 Ry     beta= 0.20
     Davidson diagonalization with overlap
     ethr =  3.22E-09,  avg # of iterations =  2.1

     total cpu time spent up to now is      483.8 secs

     total energy              =    -627.58559313 Ry
     estimated scf accuracy    <       0.00000019 Ry

     total magnetization       =    -0.00 Bohr mag/cell
     absolute magnetization    =     0.00 Bohr mag/cell

     iteration # 28     ecut=    90.00 Ry     beta= 0.20
     Davidson diagonalization with overlap
     ethr =  5.79E-10,  avg # of iterations =  2.1

     total cpu time spent up to now is      492.4 secs

     total energy              =    -627.58559275 Ry
     estimated scf accuracy    <       0.00000010 Ry

     total magnetization       =     0.00 Bohr mag/cell
     absolute magnetization    =     0.01 Bohr mag/cell

     iteration # 29     ecut=    90.00 Ry     beta= 0.20
     Davidson diagonalization with overlap
     ethr =  3.10E-10,  avg # of iterations =  4.8

     total cpu time spent up to now is      504.1 secs

     total energy              =    -627.58559370 Ry
     estimated scf accuracy    <       0.00000005 Ry

     total magnetization       =     0.00 Bohr mag/cell
     absolute magnetization    =     0.00 Bohr mag/cell

     iteration # 30     ecut=    90.00 Ry     beta= 0.20
     Davidson diagonalization with overlap
     ethr =  1.54E-10,  avg # of iterations =  1.8

     Magnetic moment per site:
     atom:    1    charge:   12.6512    magn:    0.0002    constr:    0.0000
     atom:    2    charge:   13.7929    magn:    0.0002    constr:    0.0000

     total cpu time spent up to now is      511.9 secs

     End of self-consistent calculation

     Number of k-points >= 100: set verbosity='high' to print the bands.

     the Fermi energy is    16.6821 ev

!    total energy              =    -627.58559388 Ry
     estimated scf accuracy    <          7.9E-09 Ry
     smearing contrib. (-TS)   =      -0.00466197 Ry
     internal energy E=F+TS    =    -627.58093191 Ry

     The total energy is F=E-TS. E is the sum of the following terms:
     one-electron contribution =    -293.82994021 Ry
     hartree contribution      =     166.35761005 Ry
     xc contribution           =     -67.34809146 Ry
     ewald contribution        =    -356.61289790 Ry
     one-center paw contrib.   =     -76.14761239 Ry

     total magnetization       =     0.00 Bohr mag/cell
     absolute magnetization    =     0.00 Bohr mag/cell

     convergence has been achieved in  30 iterations

     Forces acting on atoms (cartesian axes, Ry/au):

     atom    1 type  1   force =    -0.00000012   -0.00000002    0.00000006
     atom    2 type  2   force =     0.00000012    0.00000002   -0.00000006

     Total force =     0.000000     Total SCF correction =     0.000001
     SCF correction compared to forces is large: reduce conv_thr to get better values


     Computing stress (Cartesian axis) and pressure

          total   stress  (Ry/bohr**3)                   (kbar)     P=      -43.65
  -0.00029661   0.00000002  -0.00000003          -43.63        0.00       -0.00
   0.00000002  -0.00029663   0.00000003            0.00      -43.64        0.00
  -0.00000003   0.00000003  -0.00029690           -0.00        0.00      -43.68

     Energy error            =      1.1E+00
     Gradient error          =      1.2E-07
     Cell gradient error     =      3.0E-04


     number of scf cycles    =   2
     number of bfgs steps    =   1

     enthalpy old            =    -626.5154220666 Ry
     enthalpy new            =    -627.5855938800 Ry

     CASE: enthalpy_new < enthalpy_old

     new trust radius        =       0.0054690991 bohr
     new conv_thr            =            1.0E-10 Ry

     new unit-cell volume =    161.84421 a.u.^3 (    23.98284 Ang^3 )
     density =      7.94707 g/cm^3

CELL_PARAMETERS (alat=  6.74387050)
  -0.641379430  -0.000000018   0.641373314
  -0.000000050   0.641378878   0.641373246
  -0.641378397   0.641377913   0.000001015

ATOMIC_POSITIONS (alat)
Fe            0.6413788079        0.6413793701        0.6413727241
Co            0.0000000309       -0.0000000007       -0.0000000197



     Writing output data file ./pwscf.save/
     NEW-OLD atomic charge density approx. for the potential

     Check: negative core charge=   -0.000038
     extrapolated charge   32.79402, renormalised to   33.00000
     Generating pointlists ...

     total cpu time spent up to now is      516.1 secs

     Self-consistent Calculation

     iteration #  1     ecut=    90.00 Ry     beta= 0.20
     Davidson diagonalization with overlap
     ethr =  1.00E-06,  avg # of iterations =  7.1

     total cpu time spent up to now is      534.6 secs

     total energy              =    -627.51807135 Ry
     estimated scf accuracy    <       0.13333050 Ry

     total magnetization       =     0.00 Bohr mag/cell
     absolute magnetization    =     0.00 Bohr mag/cell

     iteration #  2     ecut=    90.00 Ry     beta= 0.20
     Davidson diagonalization with overlap
     ethr =  4.04E-04,  avg # of iterations =  2.5

     total cpu time spent up to now is      544.3 secs

     total energy              =    -627.54573745 Ry
     estimated scf accuracy    <       1.03683990 Ry

     total magnetization       =     0.00 Bohr mag/cell
     absolute magnetization    =     0.00 Bohr mag/cell

     iteration #  3     ecut=    90.00 Ry     beta= 0.20
     Davidson diagonalization with overlap
     ethr =  4.04E-04,  avg # of iterations =  1.5

     total cpu time spent up to now is      551.7 secs

     total energy              =    -627.58631955 Ry
     estimated scf accuracy    <       0.05288341 Ry

     total magnetization       =     0.00 Bohr mag/cell
     absolute magnetization    =     0.00 Bohr mag/cell

     iteration #  4     ecut=    90.00 Ry     beta= 0.20
     Davidson diagonalization with overlap
     ethr =  1.60E-04,  avg # of iterations =  1.0

     total cpu time spent up to now is      558.8 secs

     total energy              =    -627.58671427 Ry
     estimated scf accuracy    <       0.02159486 Ry

     total magnetization       =     0.00 Bohr mag/cell
     absolute magnetization    =     0.00 Bohr mag/cell

     iteration #  5     ecut=    90.00 Ry     beta= 0.20
     Davidson diagonalization with overlap
     ethr =  6.54E-05,  avg # of iterations =  1.0

     total cpu time spent up to now is      565.9 secs

     total energy              =    -627.58645511 Ry
     estimated scf accuracy    <       0.00898297 Ry

     total magnetization       =     0.00 Bohr mag/cell
     absolute magnetization    =     0.00 Bohr mag/cell

     iteration #  6     ecut=    90.00 Ry     beta= 0.20
     Davidson diagonalization with overlap
     ethr =  2.72E-05,  avg # of iterations =  1.0

     total cpu time spent up to now is      572.9 secs

     total energy              =    -627.58645921 Ry
     estimated scf accuracy    <       0.00471528 Ry

     total magnetization       =     0.00 Bohr mag/cell
     absolute magnetization    =     0.00 Bohr mag/cell

     iteration #  7     ecut=    90.00 Ry     beta= 0.20
     Davidson diagonalization with overlap
     ethr =  1.43E-05,  avg # of iterations =  1.0

     total cpu time spent up to now is      580.0 secs

     total energy              =    -627.58623727 Ry
     estimated scf accuracy    <       0.00416590 Ry

     total magnetization       =     0.00 Bohr mag/cell
     absolute magnetization    =     0.00 Bohr mag/cell

     iteration #  8     ecut=    90.00 Ry     beta= 0.20
     Davidson diagonalization with overlap
     ethr =  1.26E-05,  avg # of iterations =  1.0

     total cpu time spent up to now is      587.2 secs

     total energy              =    -627.58586924 Ry
     estimated scf accuracy    <       0.00274828 Ry

     total magnetization       =     0.00 Bohr mag/cell
     absolute magnetization    =     0.00 Bohr mag/cell

     iteration #  9     ecut=    90.00 Ry     beta= 0.20
     Davidson diagonalization with overlap
     ethr =  8.33E-06,  avg # of iterations =  1.2

     total cpu time spent up to now is      594.4 secs

     total energy              =    -627.58595788 Ry
     estimated scf accuracy    <       0.00072222 Ry

     total magnetization       =     0.00 Bohr mag/cell
     absolute magnetization    =     0.00 Bohr mag/cell

     iteration # 10     ecut=    90.00 Ry     beta= 0.20
     Davidson diagonalization with overlap
     ethr =  2.19E-06,  avg # of iterations =  1.0

     total cpu time spent up to now is      601.5 secs

     total energy              =    -627.58576127 Ry
     estimated scf accuracy    <       0.00074083 Ry

     total magnetization       =     0.00 Bohr mag/cell
     absolute magnetization    =     0.00 Bohr mag/cell

     iteration # 11     ecut=    90.00 Ry     beta= 0.20
     Davidson diagonalization with overlap
     ethr =  2.19E-06,  avg # of iterations =  2.0

     total cpu time spent up to now is      609.9 secs

     total energy              =    -627.58585858 Ry
     estimated scf accuracy    <       0.00000027 Ry

     total magnetization       =     0.00 Bohr mag/cell
     absolute magnetization    =     0.00 Bohr mag/cell

     iteration # 12     ecut=    90.00 Ry     beta= 0.20
     Davidson diagonalization with overlap
     ethr =  8.08E-10,  avg # of iterations =  7.9

     total cpu time spent up to now is      630.7 secs

     total energy              =    -627.58586511 Ry
     estimated scf accuracy    <       0.00000258 Ry

     total magnetization       =     0.00 Bohr mag/cell
     absolute magnetization    =     0.00 Bohr mag/cell

     iteration # 13     ecut=    90.00 Ry     beta= 0.20
     Davidson diagonalization with overlap
     ethr =  8.08E-10,  avg # of iterations =  2.2

     total cpu time spent up to now is      640.2 secs

     total energy              =    -627.58586587 Ry
     estimated scf accuracy    <       0.00000540 Ry

     total magnetization       =     0.00 Bohr mag/cell
     absolute magnetization    =     0.00 Bohr mag/cell

     iteration # 14     ecut=    90.00 Ry     beta= 0.20
     Davidson diagonalization with overlap
     ethr =  8.08E-10,  avg # of iterations =  3.0

     total cpu time spent up to now is      650.8 secs

     total energy              =    -627.58586500 Ry
     estimated scf accuracy    <       0.00000699 Ry

     total magnetization       =     0.00 Bohr mag/cell
     absolute magnetization    =     0.00 Bohr mag/cell

     iteration # 15     ecut=    90.00 Ry     beta= 0.20
     Davidson diagonalization with overlap
     ethr =  8.08E-10,  avg # of iterations =  2.0

     total cpu time spent up to now is      659.1 secs

     total energy              =    -627.58586621 Ry
     estimated scf accuracy    <       0.00000667 Ry

     total magnetization       =     0.00 Bohr mag/cell
     absolute magnetization    =     0.00 Bohr mag/cell

     iteration # 16     ecut=    90.00 Ry     beta= 0.20
     Davidson diagonalization with overlap
     ethr =  8.08E-10,  avg # of iterations =  2.1

     total cpu time spent up to now is      668.0 secs

     total energy              =    -627.58586595 Ry
     estimated scf accuracy    <       0.00001070 Ry

     total magnetization       =     0.00 Bohr mag/cell
     absolute magnetization    =     0.00 Bohr mag/cell

     iteration # 17     ecut=    90.00 Ry     beta= 0.20
     Davidson diagonalization with overlap
     ethr =  8.08E-10,  avg # of iterations =  1.4

     total cpu time spent up to now is      675.4 secs

     total energy              =    -627.58586511 Ry
     estimated scf accuracy    <       0.00000897 Ry

     total magnetization       =     0.00 Bohr mag/cell
     absolute magnetization    =     0.00 Bohr mag/cell

     iteration # 18     ecut=    90.00 Ry     beta= 0.20
     Davidson diagonalization with overlap
     ethr =  8.08E-10,  avg # of iterations =  2.0

     total cpu time spent up to now is      684.7 secs

     total energy              =    -627.58586488 Ry
     estimated scf accuracy    <       0.00000625 Ry

     total magnetization       =     0.00 Bohr mag/cell
     absolute magnetization    =     0.00 Bohr mag/cell

     iteration # 19     ecut=    90.00 Ry     beta= 0.20
     Davidson diagonalization with overlap
     ethr =  8.08E-10,  avg # of iterations =  2.0

     total cpu time spent up to now is      693.2 secs

     total energy              =    -627.58586501 Ry
     estimated scf accuracy    <       0.00000421 Ry

     total magnetization       =     0.00 Bohr mag/cell
     absolute magnetization    =     0.00 Bohr mag/cell

     iteration # 20     ecut=    90.00 Ry     beta= 0.20
     Davidson diagonalization with overlap
     ethr =  8.08E-10,  avg # of iterations =  1.0

     total cpu time spent up to now is      700.4 secs

     total energy              =    -627.58586314 Ry
     estimated scf accuracy    <       0.00000449 Ry

     total magnetization       =     0.00 Bohr mag/cell
     absolute magnetization    =     0.00 Bohr mag/cell

     iteration # 21     ecut=    90.00 Ry     beta= 0.20
     Davidson diagonalization with overlap
     ethr =  8.08E-10,  avg # of iterations =  5.0

     total cpu time spent up to now is      713.6 secs

     total energy              =    -627.58586390 Ry
     estimated scf accuracy    <       0.00000029 Ry

     total magnetization       =     0.00 Bohr mag/cell
     absolute magnetization    =     0.00 Bohr mag/cell

     iteration # 22     ecut=    90.00 Ry     beta= 0.20
     Davidson diagonalization with overlap
     ethr =  8.08E-10,  avg # of iterations =  2.0

     total cpu time spent up to now is      722.1 secs

     total energy              =    -627.58586387 Ry
     estimated scf accuracy    <       0.00000021 Ry

     total magnetization       =     0.00 Bohr mag/cell
     absolute magnetization    =     0.00 Bohr mag/cell

     iteration # 23     ecut=    90.00 Ry     beta= 0.20
     Davidson diagonalization with overlap
     ethr =  6.24E-10,  avg # of iterations =  2.0

     total cpu time spent up to now is      730.4 secs

     total energy              =    -627.58586388 Ry
     estimated scf accuracy    <          9.1E-09 Ry

     total magnetization       =     0.00 Bohr mag/cell
     absolute magnetization    =     0.00 Bohr mag/cell

     iteration # 24     ecut=    90.00 Ry     beta= 0.20
     Davidson diagonalization with overlap
     ethr =  2.76E-11,  avg # of iterations =  4.9

     total cpu time spent up to now is      742.2 secs

     total energy              =    -627.58586388 Ry
     estimated scf accuracy    <          7.2E-10 Ry

     total magnetization       =     0.00 Bohr mag/cell
     absolute magnetization    =     0.00 Bohr mag/cell

     iteration # 25     ecut=    90.00 Ry     beta= 0.20
     Davidson diagonalization with overlap
     ethr =  2.17E-12,  avg # of iterations =  1.9

     total cpu time spent up to now is      749.9 secs

     total energy              =    -627.58586389 Ry
     estimated scf accuracy    <          6.0E-10 Ry

     total magnetization       =     0.00 Bohr mag/cell
     absolute magnetization    =     0.00 Bohr mag/cell

     iteration # 26     ecut=    90.00 Ry     beta= 0.20
     Davidson diagonalization with overlap
     ethr =  1.81E-12,  avg # of iterations =  2.0

     total cpu time spent up to now is      757.8 secs

     total energy              =    -627.58586388 Ry
     estimated scf accuracy    <          9.7E-10 Ry

     total magnetization       =     0.00 Bohr mag/cell
     absolute magnetization    =     0.00 Bohr mag/cell

     iteration # 27     ecut=    90.00 Ry     beta= 0.20
     Davidson diagonalization with overlap
     ethr =  1.81E-12,  avg # of iterations =  2.0

     total cpu time spent up to now is      766.1 secs

     total energy              =    -627.58586389 Ry
     estimated scf accuracy    <          6.0E-10 Ry

     total magnetization       =     0.00 Bohr mag/cell
     absolute magnetization    =     0.00 Bohr mag/cell

     iteration # 28     ecut=    90.00 Ry     beta= 0.20
     Davidson diagonalization with overlap
     ethr =  1.81E-12,  avg # of iterations =  1.0

     total cpu time spent up to now is      773.2 secs

     total energy              =    -627.58586389 Ry
     estimated scf accuracy    <          6.1E-10 Ry

     total magnetization       =     0.00 Bohr mag/cell
     absolute magnetization    =     0.00 Bohr mag/cell

     iteration # 29     ecut=    90.00 Ry     beta= 0.20
     Davidson diagonalization with overlap
     ethr =  1.81E-12,  avg # of iterations =  1.0

     total cpu time spent up to now is      780.2 secs

     total energy              =    -627.58586389 Ry
     estimated scf accuracy    <          6.5E-10 Ry

     total magnetization       =     0.00 Bohr mag/cell
     absolute magnetization    =     0.00 Bohr mag/cell

     iteration # 30     ecut=    90.00 Ry     beta= 0.20
     Davidson diagonalization with overlap
     ethr =  1.81E-12,  avg # of iterations =  1.0

     total cpu time spent up to now is      787.2 secs

     total energy              =    -627.58586389 Ry
     estimated scf accuracy    <          5.3E-10 Ry

     total magnetization       =     0.00 Bohr mag/cell
     absolute magnetization    =     0.00 Bohr mag/cell

     iteration # 31     ecut=    90.00 Ry     beta= 0.20
     Davidson diagonalization with overlap
     ethr =  1.60E-12,  avg # of iterations =  1.0

     total cpu time spent up to now is      794.3 secs

     total energy              =    -627.58586389 Ry
     estimated scf accuracy    <          4.5E-10 Ry

     total magnetization       =     0.00 Bohr mag/cell
     absolute magnetization    =     0.00 Bohr mag/cell

     iteration # 32     ecut=    90.00 Ry     beta= 0.20
     Davidson diagonalization with overlap
     ethr =  1.36E-12,  avg # of iterations =  1.0

     total cpu time spent up to now is      801.3 secs

     total energy              =    -627.58586389 Ry
     estimated scf accuracy    <          3.3E-10 Ry

     total magnetization       =     0.00 Bohr mag/cell
     absolute magnetization    =     0.00 Bohr mag/cell

     iteration # 33     ecut=    90.00 Ry     beta= 0.20
     Davidson diagonalization with overlap
     ethr =  9.97E-13,  avg # of iterations =  1.1

     total cpu time spent up to now is      808.5 secs

     total energy              =    -627.58586389 Ry
     estimated scf accuracy    <          1.3E-10 Ry

     total magnetization       =     0.00 Bohr mag/cell
     absolute magnetization    =     0.00 Bohr mag/cell

     iteration # 34     ecut=    90.00 Ry     beta= 0.20
     Davidson diagonalization with overlap
     ethr =  3.85E-13,  avg # of iterations =  2.0

     Magnetic moment per site:
     atom:    1    charge:   12.6529    magn:    0.0000    constr:    0.0000
     atom:    2    charge:   13.7944    magn:    0.0000    constr:    0.0000

     total cpu time spent up to now is      817.5 secs

     End of self-consistent calculation

     Number of k-points >= 100: set verbosity='high' to print the bands.

     the Fermi energy is    16.8195 ev

!    total energy              =    -627.58586389 Ry
     estimated scf accuracy    <          8.5E-11 Ry
     smearing contrib. (-TS)   =      -0.00462644 Ry
     internal energy E=F+TS    =    -627.58123745 Ry

     The total energy is F=E-TS. E is the sum of the following terms:
     one-electron contribution =    -292.59636591 Ry
     hartree contribution      =     165.89693615 Ry
     xc contribution           =     -67.35762511 Ry
     ewald contribution        =    -357.37644600 Ry
     one-center paw contrib.   =     -76.14773657 Ry

     total magnetization       =     0.00 Bohr mag/cell
     absolute magnetization    =     0.00 Bohr mag/cell

     convergence has been achieved in  34 iterations

     Forces acting on atoms (cartesian axes, Ry/au):

     atom    1 type  1   force =    -0.00000002    0.00000002   -0.00000002
     atom    2 type  2   force =     0.00000002   -0.00000002    0.00000002

     Total force =     0.000000     Total SCF correction =     0.000001
     SCF correction compared to forces is large: reduce conv_thr to get better values


     Computing stress (Cartesian axis) and pressure

          total   stress  (Ry/bohr**3)                   (kbar)     P=      -31.87
  -0.00021668  -0.00000000  -0.00000000          -31.87       -0.00       -0.00
  -0.00000000  -0.00021672  -0.00000000           -0.00      -31.88       -0.00
  -0.00000000  -0.00000000  -0.00021659           -0.00       -0.00      -31.86

     Energy error            =      2.7E-04
     Gradient error          =      2.0E-08
     Cell gradient error     =      2.2E-04


     number of scf cycles    =   3
     number of bfgs steps    =   2

     enthalpy old            =    -627.5855938800 Ry
     enthalpy new            =    -627.5858638875 Ry

     CASE: enthalpy_new < enthalpy_old

     new trust radius        =       0.0081949302 bohr
     new conv_thr            =            1.0E-10 Ry

     new unit-cell volume =    160.28729 a.u.^3 (    23.75213 Ang^3 )
     density =      8.02427 g/cm^3

CELL_PARAMETERS (alat=  6.74387050)
  -0.639315570   0.000000011   0.639313287
  -0.000000258   0.639313037   0.639313039
  -0.639314537   0.639312252   0.000001043

ATOMIC_POSITIONS (alat)
Fe            0.6393146274        0.6393134346        0.6393124036
Co            0.0000000385       -0.0000000107       -0.0000000097



     Writing output data file ./pwscf.save/
     NEW-OLD atomic charge density approx. for the potential

     Check: negative core charge=   -0.000039
     extrapolated charge   32.68918, renormalised to   33.00000
     Generating pointlists ...

     total cpu time spent up to now is      821.8 secs

     Self-consistent Calculation

     iteration #  1     ecut=    90.00 Ry     beta= 0.20
     Davidson diagonalization with overlap
     ethr =  1.00E-06,  avg # of iterations =  7.1

     total cpu time spent up to now is      841.4 secs

     total energy              =    -627.43582841 Ry
     estimated scf accuracy    <       0.29357850 Ry

     total magnetization       =     0.00 Bohr mag/cell
     absolute magnetization    =     0.00 Bohr mag/cell

     iteration #  2     ecut=    90.00 Ry     beta= 0.20
     Davidson diagonalization with overlap
     ethr =  8.90E-04,  avg # of iterations =  2.4

     total cpu time spent up to now is      851.2 secs

     total energy              =    -627.50369986 Ry
     estimated scf accuracy    <       2.08311154 Ry

     total magnetization       =     0.00 Bohr mag/cell
     absolute magnetization    =     0.00 Bohr mag/cell

     iteration #  3     ecut=    90.00 Ry     beta= 0.20
     Davidson diagonalization with overlap
     ethr =  8.90E-04,  avg # of iterations =  1.4

     total cpu time spent up to now is      858.6 secs

     total energy              =    -627.58704079 Ry
     estimated scf accuracy    <       0.11709724 Ry

     total magnetization       =     0.00 Bohr mag/cell
     absolute magnetization    =     0.00 Bohr mag/cell

     iteration #  4     ecut=    90.00 Ry     beta= 0.20
     Davidson diagonalization with overlap
     ethr =  3.55E-04,  avg # of iterations =  1.0

     total cpu time spent up to now is      865.6 secs

     total energy              =    -627.58780236 Ry
     estimated scf accuracy    <       0.04738064 Ry

     total magnetization       =     0.00 Bohr mag/cell
     absolute magnetization    =     0.00 Bohr mag/cell

     iteration #  5     ecut=    90.00 Ry     beta= 0.20
     Davidson diagonalization with overlap
     ethr =  1.44E-04,  avg # of iterations =  1.0

     total cpu time spent up to now is      872.7 secs

     total energy              =    -627.58754005 Ry
     estimated scf accuracy    <       0.01868506 Ry

     total magnetization       =     0.00 Bohr mag/cell
     absolute magnetization    =     0.00 Bohr mag/cell

     iteration #  6     ecut=    90.00 Ry     beta= 0.20
     Davidson diagonalization with overlap
     ethr =  5.66E-05,  avg # of iterations =  1.0

     total cpu time spent up to now is      879.8 secs

     total energy              =    -627.58753064 Ry
     estimated scf accuracy    <       0.01090609 Ry

     total magnetization       =     0.00 Bohr mag/cell
     absolute magnetization    =     0.00 Bohr mag/cell

     iteration #  7     ecut=    90.00 Ry     beta= 0.20
     Davidson diagonalization with overlap
     ethr =  3.30E-05,  avg # of iterations =  1.0

     total cpu time spent up to now is      886.9 secs

     total energy              =    -627.58658796 Ry
     estimated scf accuracy    <       0.00980682 Ry

     total magnetization       =     0.00 Bohr mag/cell
     absolute magnetization    =     0.00 Bohr mag/cell

     iteration #  8     ecut=    90.00 Ry     beta= 0.20
     Davidson diagonalization with overlap
     ethr =  2.97E-05,  avg # of iterations =  1.0

     total cpu time spent up to now is      893.9 secs

     total energy              =    -627.58550857 Ry
     estimated scf accuracy    <       0.00445305 Ry

     total magnetization       =     0.00 Bohr mag/cell
     absolute magnetization    =     0.00 Bohr mag/cell

     iteration #  9     ecut=    90.00 Ry     beta= 0.20
     Davidson diagonalization with overlap
     ethr =  1.35E-05,  avg # of iterations =  2.0

     total cpu time spent up to now is      902.3 secs

     total energy              =    -627.58609336 Ry
     estimated scf accuracy    <       0.00000640 Ry

     total magnetization       =     0.00 Bohr mag/cell
     absolute magnetization    =     0.00 Bohr mag/cell

     iteration # 10     ecut=    90.00 Ry     beta= 0.20
     Davidson diagonalization with overlap
     ethr =  1.94E-08,  avg # of iterations =  6.0

     total cpu time spent up to now is      917.3 secs

     total energy              =    -627.58606242 Ry
     estimated scf accuracy    <       0.00027853 Ry

     total magnetization       =     0.00 Bohr mag/cell
     absolute magnetization    =     0.00 Bohr mag/cell

     iteration # 11     ecut=    90.00 Ry     beta= 0.20
     Davidson diagonalization with overlap
     ethr =  1.94E-08,  avg # of iterations =  5.1

     total cpu time spent up to now is      931.4 secs

     total energy              =    -627.58610352 Ry
     estimated scf accuracy    <       0.00000804 Ry

     total magnetization       =     0.00 Bohr mag/cell
     absolute magnetization    =     0.00 Bohr mag/cell

     iteration # 12     ecut=    90.00 Ry     beta= 0.20
     Davidson diagonalization with overlap
     ethr =  1.94E-08,  avg # of iterations =  1.0

     total cpu time spent up to now is      938.5 secs

     total energy              =    -627.58610182 Ry
     estimated scf accuracy    <       0.00000679 Ry

     total magnetization       =     0.00 Bohr mag/cell
     absolute magnetization    =     0.00 Bohr mag/cell

     iteration # 13     ecut=    90.00 Ry     beta= 0.20
     Davidson diagonalization with overlap
     ethr =  1.94E-08,  avg # of iterations =  1.0

     total cpu time spent up to now is      945.5 secs

     total energy              =    -627.58610223 Ry
     estimated scf accuracy    <       0.00000217 Ry

     total magnetization       =     0.00 Bohr mag/cell
     absolute magnetization    =     0.00 Bohr mag/cell

     iteration # 14     ecut=    90.00 Ry     beta= 0.20
     Davidson diagonalization with overlap
     ethr =  6.57E-09,  avg # of iterations =  1.0

     total cpu time spent up to now is      952.6 secs

     total energy              =    -627.58610220 Ry
     estimated scf accuracy    <       0.00000176 Ry

     total magnetization       =     0.00 Bohr mag/cell
     absolute magnetization    =     0.00 Bohr mag/cell

     iteration # 15     ecut=    90.00 Ry     beta= 0.20
     Davidson diagonalization with overlap
     ethr =  5.34E-09,  avg # of iterations =  1.0

     total cpu time spent up to now is      959.7 secs

     total energy              =    -627.58610236 Ry
     estimated scf accuracy    <       0.00000145 Ry

     total magnetization       =     0.00 Bohr mag/cell
     absolute magnetization    =     0.00 Bohr mag/cell

     iteration # 16     ecut=    90.00 Ry     beta= 0.20
     Davidson diagonalization with overlap
     ethr =  4.39E-09,  avg # of iterations =  1.0

     total cpu time spent up to now is      966.8 secs

     total energy              =    -627.58610237 Ry
     estimated scf accuracy    <       0.00000218 Ry

     total magnetization       =     0.00 Bohr mag/cell
     absolute magnetization    =     0.00 Bohr mag/cell

     iteration # 17     ecut=    90.00 Ry     beta= 0.20
     Davidson diagonalization with overlap
     ethr =  4.39E-09,  avg # of iterations =  1.0

     total cpu time spent up to now is      973.8 secs

     total energy              =    -627.58610176 Ry
     estimated scf accuracy    <       0.00000187 Ry

     total magnetization       =     0.00 Bohr mag/cell
     absolute magnetization    =     0.00 Bohr mag/cell

     iteration # 18     ecut=    90.00 Ry     beta= 0.20
     Davidson diagonalization with overlap
     ethr =  4.39E-09,  avg # of iterations =  2.0

     total cpu time spent up to now is      982.1 secs

     total energy              =    -627.58610184 Ry
     estimated scf accuracy    <       0.00000026 Ry

     total magnetization       =     0.00 Bohr mag/cell
     absolute magnetization    =     0.00 Bohr mag/cell

     iteration # 19     ecut=    90.00 Ry     beta= 0.20
     Davidson diagonalization with overlap
     ethr =  7.98E-10,  avg # of iterations =  2.2

     total cpu time spent up to now is      990.3 secs

     total energy              =    -627.58610184 Ry
     estimated scf accuracy    <       0.00000003 Ry

     total magnetization       =     0.00 Bohr mag/cell
     absolute magnetization    =     0.00 Bohr mag/cell

     iteration # 20     ecut=    90.00 Ry     beta= 0.20
     Davidson diagonalization with overlap
     ethr =  1.01E-10,  avg # of iterations =  4.6

     total cpu time spent up to now is     1000.1 secs

     total energy              =    -627.58610186 Ry
     estimated scf accuracy    <       0.00000003 Ry

     total magnetization       =    -0.00 Bohr mag/cell
     absolute magnetization    =     0.00 Bohr mag/cell

     iteration # 21     ecut=    90.00 Ry     beta= 0.20
     Davidson diagonalization with overlap
     ethr =  9.71E-11,  avg # of iterations =  2.6

     total cpu time spent up to now is     1010.0 secs

     total energy              =    -627.58610186 Ry
     estimated scf accuracy    <          5.8E-09 Ry

     total magnetization       =     0.00 Bohr mag/cell
     absolute magnetization    =     0.00 Bohr mag/cell

     iteration # 22     ecut=    90.00 Ry     beta= 0.20
     Davidson diagonalization with overlap
     ethr =  1.77E-11,  avg # of iterations =  2.0

     total cpu time spent up to now is     1018.7 secs

     total energy              =    -627.58610187 Ry
     estimated scf accuracy    <          8.8E-10 Ry

     total magnetization       =     0.00 Bohr mag/cell
     absolute magnetization    =     0.00 Bohr mag/cell

     iteration # 23     ecut=    90.00 Ry     beta= 0.20
     Davidson diagonalization with overlap
     ethr =  2.67E-12,  avg # of iterations =  1.1

     total cpu time spent up to now is     1025.9 secs

     total energy              =    -627.58610187 Ry
     estimated scf accuracy    <          8.1E-10 Ry

     total magnetization       =     0.00 Bohr mag/cell
     absolute magnetization    =     0.00 Bohr mag/cell

     iteration # 24     ecut=    90.00 Ry     beta= 0.20
     Davidson diagonalization with overlap
     ethr =  2.46E-12,  avg # of iterations =  1.8

     Magnetic moment per site:
     atom:    1    charge:   12.6556    magn:   -0.0000    constr:    0.0000
     atom:    2    charge:   13.7969    magn:    0.0000    constr:    0.0000

     total cpu time spent up to now is     1033.6 secs

     End of self-consistent calculation

     Number of k-points >= 100: set verbosity='high' to print the bands.

     the Fermi energy is    17.0281 ev

!    total energy              =    -627.58610187 Ry
     estimated scf accuracy    <          9.6E-11 Ry
     smearing contrib. (-TS)   =      -0.00457357 Ry
     internal energy E=F+TS    =    -627.58152830 Ry

     The total energy is F=E-TS. E is the sum of the following terms:
     one-electron contribution =    -290.73587385 Ry
     hartree contribution      =     165.20445090 Ry
     xc contribution           =     -67.37235865 Ry
     ewald contribution        =    -358.52982427 Ry
     one-center paw contrib.   =     -76.14792243 Ry

     total magnetization       =     0.00 Bohr mag/cell
     absolute magnetization    =     0.00 Bohr mag/cell

     convergence has been achieved in  24 iterations

     Forces acting on atoms (cartesian axes, Ry/au):

     atom    1 type  1   force =     0.00000000   -0.00000004   -0.00000004
     atom    2 type  2   force =    -0.00000000    0.00000004    0.00000004

     Total force =     0.000000     Total SCF correction =     0.000000
     SCF correction compared to forces is large: reduce conv_thr to get better values


     Computing stress (Cartesian axis) and pressure

          total   stress  (Ry/bohr**3)                   (kbar)     P=      -12.77
  -0.00008681   0.00000001  -0.00000000          -12.77        0.00       -0.00
   0.00000001  -0.00008675   0.00000000            0.00      -12.76        0.00
  -0.00000000   0.00000000  -0.00008677           -0.00        0.00      -12.76

     Energy error            =      2.4E-04
     Gradient error          =      4.5E-08
     Cell gradient error     =      8.7E-05


     number of scf cycles    =   4
     number of bfgs steps    =   3

     enthalpy old            =    -627.5858638875 Ry
     enthalpy new            =    -627.5861018666 Ry

     CASE: enthalpy_new < enthalpy_old

     new trust radius        =       0.0054065319 bohr
     new conv_thr            =            1.0E-10 Ry

     new unit-cell volume =    159.26368 a.u.^3 (    23.60044 Ang^3 )
     density =      8.07584 g/cm^3

CELL_PARAMETERS (alat=  6.74387050)
  -0.637950677  -0.000000141   0.637950868
  -0.000000264   0.637949288   0.637950464
  -0.637949301   0.637948317   0.000001235

ATOMIC_POSITIONS (alat)
Fe            0.6379495535        0.6379498424        0.6379496322
Co            0.0000000394        0.0000000014        0.0000000117



     Writing output data file ./pwscf.save/
     NEW-OLD atomic charge density approx. for the potential

     Check: negative core charge=   -0.000039
     extrapolated charge   32.79433, renormalised to   33.00000
     Generating pointlists ...

     total cpu time spent up to now is     1037.9 secs

     Self-consistent Calculation

     iteration #  1     ecut=    90.00 Ry     beta= 0.20
     Davidson diagonalization with overlap
     ethr =  1.00E-06,  avg # of iterations =  7.0

     total cpu time spent up to now is     1056.5 secs

     total energy              =    -627.52046754 Ry
     estimated scf accuracy    <       0.12856274 Ry

     total magnetization       =     0.00 Bohr mag/cell
     absolute magnetization    =     0.00 Bohr mag/cell

     iteration #  2     ecut=    90.00 Ry     beta= 0.20
     Davidson diagonalization with overlap
     ethr =  3.90E-04,  avg # of iterations =  2.5

     total cpu time spent up to now is     1066.2 secs

     total energy              =    -627.54886837 Ry
     estimated scf accuracy    <       0.94568267 Ry

     total magnetization       =     0.00 Bohr mag/cell
     absolute magnetization    =     0.00 Bohr mag/cell

     iteration #  3     ecut=    90.00 Ry     beta= 0.20
     Davidson diagonalization with overlap
     ethr =  3.90E-04,  avg # of iterations =  1.4

     total cpu time spent up to now is     1073.7 secs

     total energy              =    -627.58664136 Ry
     estimated scf accuracy    <       0.04930359 Ry

     total magnetization       =     0.00 Bohr mag/cell
     absolute magnetization    =     0.00 Bohr mag/cell

     iteration #  4     ecut=    90.00 Ry     beta= 0.20
     Davidson diagonalization with overlap
     ethr =  1.49E-04,  avg # of iterations =  1.0

     total cpu time spent up to now is     1080.8 secs

     total energy              =    -627.58694963 Ry
     estimated scf accuracy    <       0.02040781 Ry

     total magnetization       =     0.00 Bohr mag/cell
     absolute magnetization    =     0.00 Bohr mag/cell

     iteration #  5     ecut=    90.00 Ry     beta= 0.20
     Davidson diagonalization with overlap
     ethr =  6.18E-05,  avg # of iterations =  1.0

     total cpu time spent up to now is     1087.9 secs

     total energy              =    -627.58678327 Ry
     estimated scf accuracy    <       0.00841219 Ry

     total magnetization       =     0.00 Bohr mag/cell
     absolute magnetization    =     0.00 Bohr mag/cell

     iteration #  6     ecut=    90.00 Ry     beta= 0.20
     Davidson diagonalization with overlap
     ethr =  2.55E-05,  avg # of iterations =  1.0

     total cpu time spent up to now is     1095.0 secs

     total energy              =    -627.58679259 Ry
     estimated scf accuracy    <       0.00481614 Ry

     total magnetization       =     0.00 Bohr mag/cell
     absolute magnetization    =     0.00 Bohr mag/cell

     iteration #  7     ecut=    90.00 Ry     beta= 0.20
     Davidson diagonalization with overlap
     ethr =  1.46E-05,  avg # of iterations =  1.0

     total cpu time spent up to now is     1102.1 secs

     total energy              =    -627.58642466 Ry
     estimated scf accuracy    <       0.00441303 Ry

     total magnetization       =     0.00 Bohr mag/cell
     absolute magnetization    =     0.00 Bohr mag/cell

     iteration #  8     ecut=    90.00 Ry     beta= 0.20
     Davidson diagonalization with overlap
     ethr =  1.34E-05,  avg # of iterations =  1.0

     total cpu time spent up to now is     1109.2 secs

     total energy              =    -627.58589260 Ry
     estimated scf accuracy    <       0.00227458 Ry

     total magnetization       =     0.00 Bohr mag/cell
     absolute magnetization    =     0.00 Bohr mag/cell

     iteration #  9     ecut=    90.00 Ry     beta= 0.20
     Davidson diagonalization with overlap
     ethr =  6.89E-06,  avg # of iterations =  2.1

     total cpu time spent up to now is     1117.5 secs

     total energy              =    -627.58614890 Ry
     estimated scf accuracy    <       0.00002300 Ry

     total magnetization       =     0.00 Bohr mag/cell
     absolute magnetization    =     0.00 Bohr mag/cell

     iteration # 10     ecut=    90.00 Ry     beta= 0.20
     Davidson diagonalization with overlap
     ethr =  6.97E-08,  avg # of iterations =  4.1

     total cpu time spent up to now is     1129.2 secs

     total energy              =    -627.58612927 Ry
     estimated scf accuracy    <       0.00011584 Ry

     total magnetization       =     0.00 Bohr mag/cell
     absolute magnetization    =     0.00 Bohr mag/cell

     iteration # 11     ecut=    90.00 Ry     beta= 0.20
     Davidson diagonalization with overlap
     ethr =  6.97E-08,  avg # of iterations =  2.8

     total cpu time spent up to now is     1139.4 secs

     total energy              =    -627.58614728 Ry
     estimated scf accuracy    <       0.00000299 Ry

     total magnetization       =     0.00 Bohr mag/cell
     absolute magnetization    =     0.00 Bohr mag/cell

     iteration # 12     ecut=    90.00 Ry     beta= 0.20
     Davidson diagonalization with overlap
     ethr =  9.06E-09,  avg # of iterations =  2.9

     total cpu time spent up to now is     1148.2 secs

     total energy              =    -627.58614647 Ry
     estimated scf accuracy    <       0.00000476 Ry

     total magnetization       =     0.00 Bohr mag/cell
     absolute magnetization    =     0.00 Bohr mag/cell

     iteration # 13     ecut=    90.00 Ry     beta= 0.20
     Davidson diagonalization with overlap
     ethr =  9.06E-09,  avg # of iterations =  1.3

     total cpu time spent up to now is     1155.6 secs

     total energy              =    -627.58614660 Ry
     estimated scf accuracy    <       0.00000156 Ry

     total magnetization       =     0.00 Bohr mag/cell
     absolute magnetization    =     0.00 Bohr mag/cell

     iteration # 14     ecut=    90.00 Ry     beta= 0.20
     Davidson diagonalization with overlap
     ethr =  4.74E-09,  avg # of iterations =  1.0

     total cpu time spent up to now is     1162.7 secs

     total energy              =    -627.58614634 Ry
     estimated scf accuracy    <       0.00000155 Ry

     total magnetization       =     0.00 Bohr mag/cell
     absolute magnetization    =     0.00 Bohr mag/cell

     iteration # 15     ecut=    90.00 Ry     beta= 0.20
     Davidson diagonalization with overlap
     ethr =  4.71E-09,  avg # of iterations =  1.0

     total cpu time spent up to now is     1169.8 secs

     total energy              =    -627.58614618 Ry
     estimated scf accuracy    <       0.00000087 Ry

     total magnetization       =     0.00 Bohr mag/cell
     absolute magnetization    =     0.00 Bohr mag/cell

     iteration # 16     ecut=    90.00 Ry     beta= 0.20
     Davidson diagonalization with overlap
     ethr =  2.63E-09,  avg # of iterations =  1.1

     total cpu time spent up to now is     1177.0 secs

     total energy              =    -627.58614619 Ry
     estimated scf accuracy    <       0.00000024 Ry

     total magnetization       =     0.00 Bohr mag/cell
     absolute magnetization    =     0.00 Bohr mag/cell

     iteration # 17     ecut=    90.00 Ry     beta= 0.20
     Davidson diagonalization with overlap
     ethr =  7.32E-10,  avg # of iterations =  3.7

     total cpu time spent up to now is     1187.7 secs

     total energy              =    -627.58614623 Ry
     estimated scf accuracy    <       0.00000010 Ry

     total magnetization       =     0.00 Bohr mag/cell
     absolute magnetization    =     0.00 Bohr mag/cell

     iteration # 18     ecut=    90.00 Ry     beta= 0.20
     Davidson diagonalization with overlap
     ethr =  2.93E-10,  avg # of iterations =  1.1

     total cpu time spent up to now is     1194.9 secs

     total energy              =    -627.58614622 Ry
     estimated scf accuracy    <       0.00000002 Ry

     total magnetization       =     0.00 Bohr mag/cell
     absolute magnetization    =     0.00 Bohr mag/cell

     iteration # 19     ecut=    90.00 Ry     beta= 0.20
     Davidson diagonalization with overlap
     ethr =  5.49E-11,  avg # of iterations =  3.2

     total cpu time spent up to now is     1205.3 secs

     total energy              =    -627.58614623 Ry
     estimated scf accuracy    <       0.00000005 Ry

     total magnetization       =     0.00 Bohr mag/cell
     absolute magnetization    =     0.00 Bohr mag/cell

     iteration # 20     ecut=    90.00 Ry     beta= 0.20
     Davidson diagonalization with overlap
     ethr =  5.49E-11,  avg # of iterations =  1.0

     total cpu time spent up to now is     1212.5 secs

     total energy              =    -627.58614623 Ry
     estimated scf accuracy    <       0.00000003 Ry

     total magnetization       =     0.00 Bohr mag/cell
     absolute magnetization    =     0.00 Bohr mag/cell

     iteration # 21     ecut=    90.00 Ry     beta= 0.20
     Davidson diagonalization with overlap
     ethr =  5.49E-11,  avg # of iterations =  1.0

     total cpu time spent up to now is     1219.6 secs

     total energy              =    -627.58614623 Ry
     estimated scf accuracy    <       0.00000002 Ry

     total magnetization       =     0.00 Bohr mag/cell
     absolute magnetization    =     0.00 Bohr mag/cell

     iteration # 22     ecut=    90.00 Ry     beta= 0.20
     Davidson diagonalization with overlap
     ethr =  5.49E-11,  avg # of iterations =  1.0

     total cpu time spent up to now is     1226.7 secs

     total energy              =    -627.58614622 Ry
     estimated scf accuracy    <       0.00000002 Ry

     total magnetization       =     0.00 Bohr mag/cell
     absolute magnetization    =     0.00 Bohr mag/cell

     iteration # 23     ecut=    90.00 Ry     beta= 0.20
     Davidson diagonalization with overlap
     ethr =  5.49E-11,  avg # of iterations =  2.0

     total cpu time spent up to now is     1235.4 secs

     total energy              =    -627.58614622 Ry
     estimated scf accuracy    <          1.5E-10 Ry

     total magnetization       =     0.00 Bohr mag/cell
     absolute magnetization    =     0.00 Bohr mag/cell

     iteration # 24     ecut=    90.00 Ry     beta= 0.20
     Davidson diagonalization with overlap
     ethr =  4.56E-13,  avg # of iterations =  6.0

     total cpu time spent up to now is     1248.8 secs

     total energy              =    -627.58614622 Ry
     estimated scf accuracy    <          2.0E-10 Ry

     total magnetization       =     0.00 Bohr mag/cell
     absolute magnetization    =     0.00 Bohr mag/cell

     iteration # 25     ecut=    90.00 Ry     beta= 0.20
     Davidson diagonalization with overlap
     ethr =  4.56E-13,  avg # of iterations =  4.9

     total cpu time spent up to now is     1261.1 secs

     total energy              =    -627.58614622 Ry
     estimated scf accuracy    <          9.0E-10 Ry

[...]
     c_bands:  1 eigenvalues not converged
     c_bands:  1 eigenvalues not converged
     c_bands:  1 eigenvalues not converged
     c_bands:  1 eigenvalues not converged
     c_bands:  1 eigenvalues not converged
     c_bands:  1 eigenvalues not converged
     c_bands:  1 eigenvalues not converged
     c_bands:  1 eigenvalues not converged
     c_bands:  1 eigenvalues not converged
     c_bands:  1 eigenvalues not converged
     c_bands:  1 eigenvalues not converged
     c_bands:  1 eigenvalues not converged
     c_bands:  1 eigenvalues not converged
     c_bands:  1 eigenvalues not converged
     c_bands:  1 eigenvalues not converged
     c_bands:  1 eigenvalues not converged
     c_bands:  1 eigenvalues not converged
     c_bands:  1 eigenvalues not converged
     c_bands:  1 eigenvalues not converged
     c_bands:  1 eigenvalues not converged
     c_bands:  1 eigenvalues not converged
     c_bands:  1 eigenvalues not converged
     c_bands:  1 eigenvalues not converged
     c_bands:  1 eigenvalues not converged
     c_bands:  1 eigenvalues not converged
     c_bands:  1 eigenvalues not converged
     c_bands:  1 eigenvalues not converged
     c_bands:  1 eigenvalues not converged
     c_bands:  1 eigenvalues not converged
     c_bands:  1 eigenvalues not converged
     c_bands:  1 eigenvalues not converged
     c_bands:  1 eigenvalues not converged
     c_bands:  1 eigenvalues not converged
     c_bands:  1 eigenvalues not converged
     c_bands:  1 eigenvalues not converged
     c_bands:  1 eigenvalues not converged
     c_bands:  1 eigenvalues not converged
     c_bands:  1 eigenvalues not converged
     c_bands:  1 eigenvalues not converged
     c_bands:  1 eigenvalues not converged
     c_bands:  2 eigenvalues not converged
     c_bands:  1 eigenvalues not converged
     c_bands:  1 eigenvalues not converged
     c_bands:  2 eigenvalues not converged
     c_bands:  1 eigenvalues not converged
     c_bands:  1 eigenvalues not converged
     c_bands:  1 eigenvalues not converged
     c_bands:  1 eigenvalues not converged
     c_bands:  2 eigenvalues not converged
     c_bands:  1 eigenvalues not converged
     c_bands:  1 eigenvalues not converged
     c_bands:  1 eigenvalues not converged
     c_bands:  2 eigenvalues not converged
     c_bands:  1 eigenvalues not converged
     c_bands:  1 eigenvalues not converged
     c_bands:  1 eigenvalues not converged
     c_bands:  1 eigenvalues not converged
     c_bands:  1 eigenvalues not converged
     c_bands:  1 eigenvalues not converged
     c_bands:  1 eigenvalues not converged
     c_bands:  1 eigenvalues not converged
     c_bands:  1 eigenvalues not converged
     c_bands:  1 eigenvalues not converged
     c_bands:  1 eigenvalues not converged
     c_bands:  1 eigenvalues not converged
     c_bands:  1 eigenvalues not converged
     c_bands:  1 eigenvalues not converged
     c_bands:  1 eigenvalues not converged
     c_bands:  1 eigenvalues not converged
     c_bands:  1 eigenvalues not converged
     c_bands:  1 eigenvalues not converged
     c_bands:  1 eigenvalues not converged
     c_bands:  1 eigenvalues not converged
     c_bands:  1 eigenvalues not converged
     c_bands:  1 eigenvalues not converged
     c_bands:  1 eigenvalues not converged
     c_bands:  1 eigenvalues not converged
     c_bands:  1 eigenvalues not converged
     c_bands:  1 eigenvalues not converged
     c_bands:  1 eigenvalues not converged
     c_bands:  1 eigenvalues not converged
     c_bands:  1 eigenvalues not converged
     c_bands:  1 eigenvalues not converged
     c_bands:  1 eigenvalues not converged
     c_bands:  1 eigenvalues not converged
     c_bands:  1 eigenvalues not converged
     c_bands:  1 eigenvalues not converged
     c_bands:  1 eigenvalues not converged
     c_bands:  1 eigenvalues not converged
     c_bands:  1 eigenvalues not converged
     c_bands:  1 eigenvalues not converged
     c_bands:  1 eigenvalues not converged
     c_bands:  1 eigenvalues not converged
     c_bands:  1 eigenvalues not converged
     c_bands:  1 eigenvalues not converged
     c_bands:  1 eigenvalues not converged
     c_bands:  1 eigenvalues not converged
     c_bands:  1 eigenvalues not converged
     c_bands:  1 eigenvalues not converged
     c_bands:  1 eigenvalues not converged
     c_bands:  1 eigenvalues not converged
     c_bands:  1 eigenvalues not converged
     c_bands:  1 eigenvalues not converged
     c_bands:  1 eigenvalues not converged
     c_bands:  1 eigenvalues not converged
     c_bands:  1 eigenvalues not converged
     c_bands:  1 eigenvalues not converged
     c_bands:  1 eigenvalues not converged
     c_bands:  1 eigenvalues not converged
     c_bands:  1 eigenvalues not converged
     c_bands:  1 eigenvalues not converged
     c_bands:  1 eigenvalues not converged
     c_bands:  1 eigenvalues not converged
     c_bands:  1 eigenvalues not converged
     c_bands:  1 eigenvalues not converged
     c_bands:  1 eigenvalues not converged
     ethr =  1.00E-06,  avg # of iterations = 15.1

     total cpu time spent up to now is     1549.8 secs

     total energy              =    -626.43350245 Ry
     estimated scf accuracy    <       6.16754900 Ry

     total magnetization       =     0.00 Bohr mag/cell
     absolute magnetization    =     0.00 Bohr mag/cell

     iteration #  2     ecut=    90.00 Ry     beta= 0.20
     Davidson diagonalization with overlap
     ethr =  1.00E-02,  avg # of iterations =  2.8

     total cpu time spent up to now is     1564.3 secs

     total energy              =    -627.05021528 Ry
     estimated scf accuracy    <      10.42855971 Ry

     total magnetization       =     0.00 Bohr mag/cell
     absolute magnetization    =     0.00 Bohr mag/cell

     iteration #  3     ecut=    90.00 Ry     beta= 0.20
     Davidson diagonalization with overlap
     ethr =  1.00E-02,  avg # of iterations =  2.0

     total cpu time spent up to now is     1577.2 secs

     total energy              =    -627.58902056 Ry
     estimated scf accuracy    <       0.08246339 Ry

     total magnetization       =     0.00 Bohr mag/cell
     absolute magnetization    =     0.00 Bohr mag/cell

     iteration #  4     ecut=    90.00 Ry     beta= 0.20
     Davidson diagonalization with overlap
     ethr =  2.50E-04,  avg # of iterations =  3.1

     total cpu time spent up to now is     1593.3 secs

     total energy              =    -627.60356436 Ry
     estimated scf accuracy    <       0.00264349 Ry

     total magnetization       =     0.00 Bohr mag/cell
     absolute magnetization    =     0.00 Bohr mag/cell

     iteration #  5     ecut=    90.00 Ry     beta= 0.20
     Davidson diagonalization with overlap
     ethr =  8.01E-06,  avg # of iterations =  4.8

     total cpu time spent up to now is     1612.8 secs

     total energy              =    -627.60184985 Ry
     estimated scf accuracy    <       0.00754256 Ry

     total magnetization       =     0.00 Bohr mag/cell
     absolute magnetization    =     0.00 Bohr mag/cell

     iteration #  6     ecut=    90.00 Ry     beta= 0.20
     Davidson diagonalization with overlap
     ethr =  8.01E-06,  avg # of iterations =  1.2

     total cpu time spent up to now is     1624.6 secs

     total energy              =    -627.59493608 Ry
     estimated scf accuracy    <       0.00123321 Ry

     total magnetization       =     0.00 Bohr mag/cell
     absolute magnetization    =     0.00 Bohr mag/cell

     iteration #  7     ecut=    90.00 Ry     beta= 0.20
     Davidson diagonalization with overlap
     ethr =  3.74E-06,  avg # of iterations =  2.3

     total cpu time spent up to now is     1639.9 secs

     total energy              =    -627.59385216 Ry
     estimated scf accuracy    <       0.02745247 Ry

     total magnetization       =     0.00 Bohr mag/cell
     absolute magnetization    =     0.00 Bohr mag/cell

     iteration #  8     ecut=    90.00 Ry     beta= 0.20
     Davidson diagonalization with overlap
     ethr =  3.74E-06,  avg # of iterations =  2.0

     total cpu time spent up to now is     1653.4 secs

     total energy              =    -627.59497692 Ry
     estimated scf accuracy    <       0.00001305 Ry

     total magnetization       =     0.00 Bohr mag/cell
     absolute magnetization    =     0.00 Bohr mag/cell

     iteration #  9     ecut=    90.00 Ry     beta= 0.20
     Davidson diagonalization with overlap
     ethr =  3.95E-08,  avg # of iterations =  4.0

     total cpu time spent up to now is     1668.8 secs

     total energy              =    -627.59501892 Ry
     estimated scf accuracy    <       0.00002050 Ry

     total magnetization       =     0.00 Bohr mag/cell
     absolute magnetization    =     0.00 Bohr mag/cell

     iteration # 10     ecut=    90.00 Ry     beta= 0.20
     Davidson diagonalization with overlap
     ethr =  3.95E-08,  avg # of iterations =  2.0

     total cpu time spent up to now is     1683.0 secs

     total energy              =    -627.59490378 Ry
     estimated scf accuracy    <       0.00000551 Ry

     total magnetization       =     0.00 Bohr mag/cell
     absolute magnetization    =     0.00 Bohr mag/cell

     iteration # 11     ecut=    90.00 Ry     beta= 0.20
     Davidson diagonalization with overlap
     ethr =  1.67E-08,  avg # of iterations =  2.2

     total cpu time spent up to now is     1698.4 secs

     total energy              =    -627.59488146 Ry
     estimated scf accuracy    <       0.00000912 Ry

     total magnetization       =     0.01 Bohr mag/cell
     absolute magnetization    =     0.01 Bohr mag/cell

     iteration # 12     ecut=    90.00 Ry     beta= 0.20
     Davidson diagonalization with overlap
     ethr =  1.67E-08,  avg # of iterations =  2.1

     total cpu time spent up to now is     1712.9 secs

     total energy              =    -627.59491498 Ry
     estimated scf accuracy    <       0.00005900 Ry

     total magnetization       =     0.00 Bohr mag/cell
     absolute magnetization    =     0.00 Bohr mag/cell

     iteration # 13     ecut=    90.00 Ry     beta= 0.20
     Davidson diagonalization with overlap
     ethr =  1.67E-08,  avg # of iterations =  1.1

     total cpu time spent up to now is     1724.7 secs

     total energy              =    -627.59488422 Ry
     estimated scf accuracy    <       0.00002944 Ry

     total magnetization       =     0.00 Bohr mag/cell
     absolute magnetization    =     0.00 Bohr mag/cell

     iteration # 14     ecut=    90.00 Ry     beta= 0.20
     Davidson diagonalization with overlap
     ethr =  1.67E-08,  avg # of iterations =  2.3

     total cpu time spent up to now is     1740.3 secs

     total energy              =    -627.59489294 Ry
     estimated scf accuracy    <       0.00000838 Ry

     total magnetization       =     0.00 Bohr mag/cell
     absolute magnetization    =     0.00 Bohr mag/cell

     iteration # 15     ecut=    90.00 Ry     beta= 0.20
     Davidson diagonalization with overlap
     ethr =  1.67E-08,  avg # of iterations =  1.0

     total cpu time spent up to now is     1752.1 secs

     total energy              =    -627.59489866 Ry
     estimated scf accuracy    <       0.00001999 Ry

     total magnetization       =     0.00 Bohr mag/cell
     absolute magnetization    =     0.00 Bohr mag/cell

     iteration # 16     ecut=    90.00 Ry     beta= 0.20
     Davidson diagonalization with overlap
     ethr =  1.67E-08,  avg # of iterations =  2.0

     total cpu time spent up to now is     1765.1 secs

     total energy              =    -627.59489985 Ry
     estimated scf accuracy    <       0.00000021 Ry

     total magnetization       =     0.00 Bohr mag/cell
     absolute magnetization    =     0.00 Bohr mag/cell

     iteration # 17     ecut=    90.00 Ry     beta= 0.20
     Davidson diagonalization with overlap
     ethr =  6.32E-10,  avg # of iterations =  1.8

     total cpu time spent up to now is     1777.9 secs

     total energy              =    -627.59490090 Ry
     estimated scf accuracy    <          5.2E-09 Ry

     total magnetization       =    -0.00 Bohr mag/cell
     absolute magnetization    =     0.00 Bohr mag/cell

     iteration # 18     ecut=    90.00 Ry     beta= 0.20
     Davidson diagonalization with overlap
     ethr =  1.58E-11,  avg # of iterations =  4.0

     total cpu time spent up to now is     1796.0 secs

     total energy              =    -627.59490264 Ry
     estimated scf accuracy    <       0.00000001 Ry

     total magnetization       =     0.00 Bohr mag/cell
     absolute magnetization    =     0.00 Bohr mag/cell

     iteration # 19     ecut=    90.00 Ry     beta= 0.20
     Davidson diagonalization with overlap
     ethr =  1.58E-11,  avg # of iterations =  2.3

     total cpu time spent up to now is     1811.5 secs

     total energy              =    -627.59490195 Ry
     estimated scf accuracy    <          2.3E-09 Ry

     total magnetization       =     0.00 Bohr mag/cell
     absolute magnetization    =     0.00 Bohr mag/cell

     iteration # 20     ecut=    90.00 Ry     beta= 0.20
     Davidson diagonalization with overlap
     ethr =  6.97E-12,  avg # of iterations =  2.0

     total cpu time spent up to now is     1826.1 secs

     total energy              =    -627.59490026 Ry
     estimated scf accuracy    <          1.8E-10 Ry

     total magnetization       =     0.00 Bohr mag/cell
     absolute magnetization    =     0.00 Bohr mag/cell

     iteration # 21     ecut=    90.00 Ry     beta= 0.20
     Davidson diagonalization with overlap
     ethr =  5.47E-13,  avg # of iterations =  2.0

     total cpu time spent up to now is     1839.2 secs

     total energy              =    -627.59489854 Ry
     estimated scf accuracy    <          1.6E-10 Ry

     total magnetization       =    -0.00 Bohr mag/cell
     absolute magnetization    =     0.00 Bohr mag/cell

     iteration # 22     ecut=    90.00 Ry     beta= 0.20
     Davidson diagonalization with overlap
     ethr =  4.79E-13,  avg # of iterations =  2.0

     total cpu time spent up to now is     1854.0 secs

     total energy              =    -627.59489848 Ry
     estimated scf accuracy    <          1.8E-10 Ry

     total magnetization       =    -0.00 Bohr mag/cell
     absolute magnetization    =     0.00 Bohr mag/cell

     iteration # 23     ecut=    90.00 Ry     beta= 0.20
     Davidson diagonalization with overlap
     ethr =  4.79E-13,  avg # of iterations =  2.0

     Magnetic moment per site:
     atom:    1    charge:   12.6566    magn:    0.0000    constr:    0.0000
     atom:    2    charge:   13.7992    magn:   -0.0000    constr:    0.0000

     total cpu time spent up to now is     1867.3 secs

     End of self-consistent calculation

     Number of k-points >= 100: set verbosity='high' to print the bands.

     the Fermi energy is    17.1640 ev

!    total energy              =    -627.59489879 Ry
     estimated scf accuracy    <          1.8E-11 Ry
     smearing contrib. (-TS)   =      -0.00453733 Ry
     internal energy E=F+TS    =    -627.59036146 Ry

     The total energy is F=E-TS. E is the sum of the following terms:
     one-electron contribution =    -289.52359384 Ry
     hartree contribution      =     164.75354347 Ry
     xc contribution           =     -67.38040704 Ry
     ewald contribution        =    -359.29037908 Ry
     one-center paw contrib.   =     -76.14952498 Ry

     total magnetization       =    -0.00 Bohr mag/cell
     absolute magnetization    =     0.00 Bohr mag/cell

     convergence has been achieved in  23 iterations

     Forces acting on atoms (cartesian axes, Ry/au):

     atom    1 type  1   force =     0.00000006    0.00000005    0.00000011
     atom    2 type  2   force =    -0.00000006   -0.00000005   -0.00000011

     Total force =     0.000000     Total SCF correction =     0.000001
     SCF correction compared to forces is large: reduce conv_thr to get better values


     Computing stress (Cartesian axis) and pressure

          total   stress  (Ry/bohr**3)                   (kbar)     P=        4.52
   0.00003076  -0.00000001  -0.00000000            4.53       -0.00       -0.00
  -0.00000001   0.00003077  -0.00000000           -0.00        4.53       -0.00
  -0.00000000  -0.00000000   0.00003075           -0.00       -0.00        4.52


     init_run     :     10.19s CPU     12.68s WALL (       2 calls)
     electrons    :   1749.19s CPU   1822.96s WALL (       8 calls)
     update_pot   :      3.30s CPU      3.37s WALL (       6 calls)
     forces       :      8.43s CPU      8.63s WALL (       8 calls)
     stress       :     18.82s CPU     18.96s WALL (       8 calls)

     Called by init_run:
     wfcinit      :      8.28s CPU      9.21s WALL (       2 calls)
     potinit      :      0.69s CPU      1.04s WALL (       2 calls)
     hinit0       :      1.03s CPU      2.09s WALL (       2 calls)

     Called by electrons:
     c_bands      :   1494.07s CPU   1554.88s WALL (     179 calls)
     sum_band     :    219.69s CPU    230.52s WALL (     179 calls)
     v_of_rho     :      4.81s CPU      5.06s WALL (     185 calls)
     newd         :      9.31s CPU     10.04s WALL (     185 calls)
     PAW_pot      :     22.68s CPU     24.03s WALL (     191 calls)
     mix_rho      :      0.36s CPU      0.43s WALL (     179 calls)

     Called by c_bands:
     init_us_2    :     17.04s CPU     17.80s WALL (  385056 calls)
     cegterg      :   1448.88s CPU   1508.58s WALL (  181411 calls)

     Called by *egterg:
     cdiaghg      :    248.16s CPU    255.79s WALL (  599984 calls)
     h_psi        :    918.48s CPU    961.54s WALL (  611043 calls)
     s_psi        :     45.74s CPU     48.07s WALL (  611043 calls)
     g_psi        :      3.37s CPU      3.45s WALL (  427616 calls)

     Called by h_psi:
     h_psi:calbec :     61.43s CPU     65.02s WALL (  611043 calls)
     vloc_psi     :    807.92s CPU    844.87s WALL (  611043 calls)
     add_vuspsi   :     46.03s CPU     48.54s WALL (  611043 calls)

     General routines
     calbec       :     88.38s CPU     93.44s WALL (  837843 calls)
     fft          :      1.95s CPU      2.64s WALL (    4939 calls)
     ffts         :      0.08s CPU      0.13s WALL (     728 calls)
     fftw         :    890.18s CPU    932.34s WALL (23305692 calls)
     interpolate  :      0.26s CPU      0.34s WALL (     370 calls)

     Parallel routines
     fft_scatt_xy :    110.18s CPU    115.07s WALL (23311359 calls)
     fft_scatt_yz :    296.48s CPU    311.35s WALL (23311359 calls)

     PWSCF        :  29m53.28s CPU  31m13.29s WALL


   This run was terminated on:  19:21: 1   8Dec2021            

=------------------------------------------------------------------------------=
   JOB DONE.
=------------------------------------------------------------------------------=
Note: The following floating-point exceptions are signalling: IEEE_UNDERFLOW_FLAG IEEE_DENORMAL
Note: The following floating-point exceptions are signalling: IEEE_UNDERFLOW_FLAG IEEE_DENORMAL
Note: The following floating-point exceptions are signalling: IEEE_UNDERFLOW_FLAG IEEE_DENORMAL
Note: The following floating-point exceptions are signalling: IEEE_UNDERFLOW_FLAG IEEE_DENORMAL
Note: The following floating-point exceptions are signalling: IEEE_UNDERFLOW_FLAG IEEE_DENORMAL
Note: The following floating-point exceptions are signalling: IEEE_UNDERFLOW_FLAG IEEE_DENORMAL
Note: The following floating-point exceptions are signalling: IEEE_UNDERFLOW_FLAG IEEE_DENORMAL
Note: The following floating-point exceptions are signalling: IEEE_UNDERFLOW_FLAG IEEE_DENORMAL
Note: The following floating-point exceptions are signalling: IEEE_UNDERFLOW_FLAG IEEE_DENORMAL
Note: The following floating-point exceptions are signalling: IEEE_UNDERFLOW_FLAG IEEE_DENORMAL
Note: The following floating-point exceptions are signalling: IEEE_UNDERFLOW_FLAG IEEE_DENORMAL
Note: The following floating-point exceptions are signalling: IEEE_UNDERFLOW_FLAG IEEE_DENORMAL
