
     Program PWSCF v.6.7MaX starts on  9Feb2022 at 11: 5:33 

     This program is part of the open-source Quantum ESPRESSO suite
     for quantum simulation of materials; please cite
         "P. Giannozzi et al., J. Phys.:Condens. Matter 21 395502 (2009);
         "P. Giannozzi et al., J. Phys.:Condens. Matter 29 465901 (2017);
          URL http://www.quantum-espresso.org", 
     in publications or presentations arising from this work. More details at
     http://www.quantum-espresso.org/quote

     Parallel version (MPI), running on    24 processors

     MPI processes distributed on     1 nodes
     R & G space division:  proc/nbgrp/npool/nimage =      24
     Reading input from /home/kevin/QE_CoCrFeMnNi/CoCrFeMnNi/Opt/binary/Opt-B1-CrFe/Mix/MD/300K_0.0001Gpa-B1-CrFe/300K_0.0001Gpa-B1-CrFe.in

     Current dimensions of program PWSCF are:
     Max number of different atomic species (ntypx) = 10
     Max number of k-points (npk) =  40000
     Max angular momentum in pseudopotentials (lmaxx) =  3
     file Fe.pbe-spn-kjpaw_psl.0.2.1.UPF: wavefunction(s)  3D renormalized

     Subspace diagonalization in iterative solution of the eigenvalue problem:
     a serial algorithm will be used

     Found symmetry operation: I + (  0.0000  0.5000 -0.5000)
     This is a supercell, fractional translations are disabled

     Parallelization info
     --------------------
     sticks:   dense  smooth     PW     G-vecs:    dense   smooth      PW
     Min         270      90     24                16358     3142     458
     Max         271      91     25                16361     3145     463
     Sum        6493    2161    593               392615    75421   11067



     bravais-lattice index     =            0
     lattice parameter (alat)  =       8.6823  a.u.
     unit-cell volume          =     654.5026 (a.u.)^3
     number of atoms/cell      =            8
     number of atomic types    =            2
     number of electrons       =       120.00
     number of Kohn-Sham states=           72
     kinetic-energy cutoff     =      90.0000  Ry
     charge density cutoff     =    1080.0000  Ry
     scf convergence threshold =      1.0E-08
     mixing beta               =       0.2000
     number of iterations used =            4  plain     mixing
     energy convergence thresh.=      0.0E+00
     force convergence thresh. =      0.0E+00
     press convergence thresh. =      0.0E+00
     Exchange-correlation=  SLA  PW   PBX  PBC
                           (   1   4   3   4   0   0   0)
     nstep                     =          102


     celldm(1)=   8.682347  celldm(2)=   0.000000  celldm(3)=   0.000000
     celldm(4)=   0.000000  celldm(5)=   0.000000  celldm(6)=   0.000000

     crystal axes: (cart. coord. in units of alat)
               a(1) = (   1.000000   0.000000   0.000000 )  
               a(2) = (   0.000000   1.000000   0.000000 )  
               a(3) = (   0.000000   0.000000   1.000000 )  

     reciprocal axes: (cart. coord. in units 2 pi/alat)
               b(1) = (  1.000000  0.000000  0.000000 )  
               b(2) = (  0.000000  1.000000  0.000000 )  
               b(3) = (  0.000000  0.000000  1.000000 )  


     PseudoPot. # 1 for Fe read from file:
     /opt/QEpot/SSSP_efficiency_pseudos/Fe.pbe-spn-kjpaw_psl.0.2.1.UPF
     MD5 check sum: e86618425769142926afa95317d90200
     Pseudo is Projector augmented-wave + core cor, Zval = 16.0
     Generated using "atomic" code by A. Dal Corso  v.5.0.99 svn rev. 10869
     Shape of augmentation charge: PSQ
     Using radial grid of 1191 points,  6 beta functions with: 
                l(1) =   0
                l(2) =   0
                l(3) =   1
                l(4) =   1
                l(5) =   2
                l(6) =   2
     Q(r) pseudized with 0 coefficients 


     PseudoPot. # 2 for Cr read from file:
     /opt/QEpot/SSSP_efficiency_pseudos/cr_pbe_v1.5.uspp.F.UPF
     MD5 check sum: 0d52af634a40206e4dee301ad30da4bf
     Pseudo is Ultrasoft + core correction, Zval = 14.0
     Generated by new atomic code, or converted to UPF format
     Using radial grid of  857 points,  6 beta functions with: 
                l(1) =   0
                l(2) =   0
                l(3) =   1
                l(4) =   1
                l(5) =   2
                l(6) =   2
     Q(r) pseudized with  8 coefficients,  rinner =    0.950   0.950   0.950
                                                       0.950   0.950

     atomic species   valence    mass     pseudopotential
        Fe            16.00    55.84500     Fe( 1.00)
        Cr            14.00    51.99610     Cr( 1.00)

      cell mass =  32.77976 AMU 

     Starting magnetic structure 
     atomic species   magnetization
        Fe          -0.000
        Cr           0.000

     No symmetry found



   Cartesian axes

     site n.     atom                  positions (alat units)
         1           Fe  tau(   1) = (   0.0000000   0.5000000   0.0000000  )
         2           Cr  tau(   2) = (   0.5000000   0.0000000   0.5000000  )
         3           Fe  tau(   3) = (   0.0000000   0.0000000   0.5000000  )
         4           Cr  tau(   4) = (   0.5000000   0.5000000   0.0000000  )
         5           Fe  tau(   5) = (   0.5000000   0.0000000   0.0000000  )
         6           Cr  tau(   6) = (   0.0000000   0.5000000   0.5000000  )
         7           Fe  tau(   7) = (   0.5000000   0.5000000   0.5000000  )
         8           Cr  tau(   8) = (   0.0000000   0.0000000   0.0000000  )

     number of k points=    63  Gaussian smearing, width (Ry)=  0.0100
                       cart. coord. in units 2pi/alat
        k(    1) = (   0.0000000   0.0000000   0.0000000), wk =   0.0080000
        k(    2) = (   0.0000000   0.0000000   0.2000000), wk =   0.0160000
        k(    3) = (   0.0000000   0.0000000   0.4000000), wk =   0.0160000
        k(    4) = (   0.0000000   0.2000000   0.0000000), wk =   0.0160000
        k(    5) = (   0.0000000   0.2000000   0.2000000), wk =   0.0160000
        k(    6) = (   0.0000000   0.2000000   0.4000000), wk =   0.0160000
        k(    7) = (   0.0000000   0.2000000  -0.4000000), wk =   0.0160000
        k(    8) = (   0.0000000   0.2000000  -0.2000000), wk =   0.0160000
        k(    9) = (   0.0000000   0.4000000   0.0000000), wk =   0.0160000
        k(   10) = (   0.0000000   0.4000000   0.2000000), wk =   0.0160000
        k(   11) = (   0.0000000   0.4000000   0.4000000), wk =   0.0160000
        k(   12) = (   0.0000000   0.4000000  -0.4000000), wk =   0.0160000
        k(   13) = (   0.0000000   0.4000000  -0.2000000), wk =   0.0160000
        k(   14) = (   0.2000000   0.0000000   0.0000000), wk =   0.0160000
        k(   15) = (   0.2000000   0.0000000   0.2000000), wk =   0.0160000
        k(   16) = (   0.2000000   0.0000000   0.4000000), wk =   0.0160000
        k(   17) = (   0.2000000   0.0000000  -0.4000000), wk =   0.0160000
        k(   18) = (   0.2000000   0.0000000  -0.2000000), wk =   0.0160000
        k(   19) = (   0.2000000   0.2000000   0.0000000), wk =   0.0160000
        k(   20) = (   0.2000000   0.2000000   0.2000000), wk =   0.0160000
        k(   21) = (   0.2000000   0.2000000   0.4000000), wk =   0.0160000
        k(   22) = (   0.2000000   0.2000000  -0.4000000), wk =   0.0160000
        k(   23) = (   0.2000000   0.2000000  -0.2000000), wk =   0.0160000
        k(   24) = (   0.2000000   0.4000000   0.0000000), wk =   0.0160000
        k(   25) = (   0.2000000   0.4000000   0.2000000), wk =   0.0160000
        k(   26) = (   0.2000000   0.4000000   0.4000000), wk =   0.0160000
        k(   27) = (   0.2000000   0.4000000  -0.4000000), wk =   0.0160000
        k(   28) = (   0.2000000   0.4000000  -0.2000000), wk =   0.0160000
        k(   29) = (   0.2000000  -0.4000000   0.0000000), wk =   0.0160000
        k(   30) = (   0.2000000  -0.4000000   0.2000000), wk =   0.0160000
        k(   31) = (   0.2000000  -0.4000000   0.4000000), wk =   0.0160000
        k(   32) = (   0.2000000  -0.4000000  -0.4000000), wk =   0.0160000
        k(   33) = (   0.2000000  -0.4000000  -0.2000000), wk =   0.0160000
        k(   34) = (   0.2000000  -0.2000000   0.0000000), wk =   0.0160000
        k(   35) = (   0.2000000  -0.2000000   0.2000000), wk =   0.0160000
        k(   36) = (   0.2000000  -0.2000000   0.4000000), wk =   0.0160000
        k(   37) = (   0.2000000  -0.2000000  -0.4000000), wk =   0.0160000
        k(   38) = (   0.2000000  -0.2000000  -0.2000000), wk =   0.0160000
        k(   39) = (   0.4000000   0.0000000   0.0000000), wk =   0.0160000
        k(   40) = (   0.4000000   0.0000000   0.2000000), wk =   0.0160000
        k(   41) = (   0.4000000   0.0000000   0.4000000), wk =   0.0160000
        k(   42) = (   0.4000000   0.0000000  -0.4000000), wk =   0.0160000
        k(   43) = (   0.4000000   0.0000000  -0.2000000), wk =   0.0160000
        k(   44) = (   0.4000000   0.2000000   0.0000000), wk =   0.0160000
        k(   45) = (   0.4000000   0.2000000   0.2000000), wk =   0.0160000
        k(   46) = (   0.4000000   0.2000000   0.4000000), wk =   0.0160000
        k(   47) = (   0.4000000   0.2000000  -0.4000000), wk =   0.0160000
        k(   48) = (   0.4000000   0.2000000  -0.2000000), wk =   0.0160000
        k(   49) = (   0.4000000   0.4000000   0.0000000), wk =   0.0160000
        k(   50) = (   0.4000000   0.4000000   0.2000000), wk =   0.0160000
        k(   51) = (   0.4000000   0.4000000   0.4000000), wk =   0.0160000
        k(   52) = (   0.4000000   0.4000000  -0.4000000), wk =   0.0160000
        k(   53) = (   0.4000000   0.4000000  -0.2000000), wk =   0.0160000
        k(   54) = (   0.4000000  -0.4000000   0.0000000), wk =   0.0160000
        k(   55) = (   0.4000000  -0.4000000   0.2000000), wk =   0.0160000
        k(   56) = (   0.4000000  -0.4000000   0.4000000), wk =   0.0160000
        k(   57) = (   0.4000000  -0.4000000  -0.4000000), wk =   0.0160000
        k(   58) = (   0.4000000  -0.4000000  -0.2000000), wk =   0.0160000
        k(   59) = (   0.4000000  -0.2000000   0.0000000), wk =   0.0160000
        k(   60) = (   0.4000000  -0.2000000   0.2000000), wk =   0.0160000
        k(   61) = (   0.4000000  -0.2000000   0.4000000), wk =   0.0160000
        k(   62) = (   0.4000000  -0.2000000  -0.4000000), wk =   0.0160000
        k(   63) = (   0.4000000  -0.2000000  -0.2000000), wk =   0.0160000

     Dense  grid:   392615 G-vectors     FFT dimensions: (  96,  96,  96)

     Smooth grid:    75421 G-vectors     FFT dimensions: (  54,  54,  54)

     Estimated max dynamical RAM per process >     128.92 MB

     Estimated total dynamical RAM >       3.02 GB

     Check: negative core charge=   -0.000008
     Generating pointlists ...
     new r_m :   0.2063 (alat units)  1.7907 (a.u.) for type    1
     new r_m :   0.2063 (alat units)  1.7907 (a.u.) for type    2

     Initial potential from superposition of free atoms

     starting charge  115.99819, renormalised to  120.00000

     negative rho (up, down):  1.574E-03 1.574E-03
     Starting wfcs are   92 randomized atomic wfcs
     Checking if some PAW data can be deallocated... 

     total cpu time spent up to now is       13.9 secs

     Self-consistent Calculation

     iteration #  1     ecut=    90.00 Ry     beta= 0.20
     Davidson diagonalization with overlap
     ethr =  1.00E-02,  avg # of iterations =  2.0

     negative rho (up, down):  1.181E-03 1.181E-03

     total cpu time spent up to now is       41.6 secs

     total energy              =   -2012.01026034 Ry
     estimated scf accuracy    <      26.58292517 Ry

     total magnetization       =    -0.00 Bohr mag/cell
     absolute magnetization    =     0.01 Bohr mag/cell

     iteration #  2     ecut=    90.00 Ry     beta= 0.20
     Davidson diagonalization with overlap
     ethr =  1.00E-02,  avg # of iterations =  4.9

     negative rho (up, down):  1.607E-03 1.607E-03

     total cpu time spent up to now is       77.0 secs

     total energy              =   -2017.56433616 Ry
     estimated scf accuracy    <      46.13330327 Ry

     total magnetization       =    -0.03 Bohr mag/cell
     absolute magnetization    =     0.03 Bohr mag/cell

     iteration #  3     ecut=    90.00 Ry     beta= 0.20
     Davidson diagonalization with overlap
     ethr =  1.00E-02,  avg # of iterations =  2.0

     negative rho (up, down):  1.542E-03 1.542E-03

     total cpu time spent up to now is      102.1 secs

     total energy              =   -2019.33958302 Ry
     estimated scf accuracy    <       9.45475034 Ry

     total magnetization       =     0.00 Bohr mag/cell
     absolute magnetization    =     0.03 Bohr mag/cell

     iteration #  4     ecut=    90.00 Ry     beta= 0.20
     Davidson diagonalization with overlap
     ethr =  7.88E-03,  avg # of iterations =  1.0

     negative rho (up, down):  4.206E-03 4.299E-03

     total cpu time spent up to now is      123.4 secs

     total energy              =   -2016.26214582 Ry
     estimated scf accuracy    <      11.55785096 Ry

     total magnetization       =    -0.00 Bohr mag/cell
     absolute magnetization    =     0.02 Bohr mag/cell

     iteration #  5     ecut=    90.00 Ry     beta= 0.20
     Davidson diagonalization with overlap
     ethr =  7.88E-03,  avg # of iterations =  4.6

     negative rho (up, down):  1.733E-03 1.742E-03

     total cpu time spent up to now is      161.2 secs

     total energy              =   -2014.59451222 Ry
     estimated scf accuracy    <      42.86466186 Ry

     total magnetization       =     0.01 Bohr mag/cell
     absolute magnetization    =     0.08 Bohr mag/cell

     iteration #  6     ecut=    90.00 Ry     beta= 0.20
     Davidson diagonalization with overlap
     ethr =  7.88E-03,  avg # of iterations =  4.3

     negative rho (up, down):  1.967E-03 1.980E-03

     total cpu time spent up to now is      190.8 secs

     total energy              =   -2018.18176723 Ry
     estimated scf accuracy    <       3.32249971 Ry

     total magnetization       =    -0.01 Bohr mag/cell
     absolute magnetization    =     0.09 Bohr mag/cell

     iteration #  7     ecut=    90.00 Ry     beta= 0.20
     Davidson diagonalization with overlap
     ethr =  2.77E-03,  avg # of iterations =  1.4

     negative rho (up, down):  1.854E-03 1.864E-03

     total cpu time spent up to now is      213.4 secs

     total energy              =   -2018.44267915 Ry
     estimated scf accuracy    <       0.54482323 Ry

     total magnetization       =    -0.01 Bohr mag/cell
     absolute magnetization    =     0.06 Bohr mag/cell

     iteration #  8     ecut=    90.00 Ry     beta= 0.20
     Davidson diagonalization with overlap
     ethr =  4.54E-04,  avg # of iterations =  4.0

     negative rho (up, down):  1.846E-03 1.856E-03

     total cpu time spent up to now is      241.1 secs

     total energy              =   -2018.52523936 Ry
     estimated scf accuracy    <       0.21683428 Ry

     total magnetization       =     0.01 Bohr mag/cell
     absolute magnetization    =     0.03 Bohr mag/cell

     iteration #  9     ecut=    90.00 Ry     beta= 0.20
     Davidson diagonalization with overlap
     ethr =  1.81E-04,  avg # of iterations =  2.4

     negative rho (up, down):  1.842E-03 1.851E-03

     total cpu time spent up to now is      265.4 secs

     total energy              =   -2018.51321739 Ry
     estimated scf accuracy    <       0.14435476 Ry

     total magnetization       =     0.00 Bohr mag/cell
     absolute magnetization    =     0.02 Bohr mag/cell

     iteration # 10     ecut=    90.00 Ry     beta= 0.20
     Davidson diagonalization with overlap
     ethr =  1.20E-04,  avg # of iterations =  3.0

     negative rho (up, down):  1.816E-03 1.825E-03

     total cpu time spent up to now is      290.6 secs

     total energy              =   -2018.52352786 Ry
     estimated scf accuracy    <       0.02796827 Ry

     total magnetization       =     0.00 Bohr mag/cell
     absolute magnetization    =     0.02 Bohr mag/cell

     iteration # 11     ecut=    90.00 Ry     beta= 0.20
     Davidson diagonalization with overlap
     ethr =  2.33E-05,  avg # of iterations =  5.1

     negative rho (up, down):  1.767E-03 1.773E-03

     total cpu time spent up to now is      319.5 secs

     total energy              =   -2018.52426086 Ry
     estimated scf accuracy    <       0.02494441 Ry

     total magnetization       =     0.00 Bohr mag/cell
     absolute magnetization    =     0.01 Bohr mag/cell

     iteration # 12     ecut=    90.00 Ry     beta= 0.20
     Davidson diagonalization with overlap
     ethr =  2.08E-05,  avg # of iterations =  1.3

     negative rho (up, down):  1.792E-03 1.800E-03

     total cpu time spent up to now is      341.5 secs

     total energy              =   -2018.52373424 Ry
     estimated scf accuracy    <       0.02078701 Ry

     total magnetization       =     0.00 Bohr mag/cell
     absolute magnetization    =     0.01 Bohr mag/cell

     iteration # 13     ecut=    90.00 Ry     beta= 0.20
     Davidson diagonalization with overlap
     ethr =  1.73E-05,  avg # of iterations =  1.4

     negative rho (up, down):  1.694E-03 1.699E-03

     total cpu time spent up to now is      363.8 secs

     total energy              =   -2018.52463888 Ry
     estimated scf accuracy    <       0.01305984 Ry

     total magnetization       =     0.00 Bohr mag/cell
     absolute magnetization    =     0.01 Bohr mag/cell

     iteration # 14     ecut=    90.00 Ry     beta= 0.20
     Davidson diagonalization with overlap
     ethr =  1.09E-05,  avg # of iterations =  1.5

     negative rho (up, down):  1.741E-03 1.748E-03

     total cpu time spent up to now is      386.1 secs

     total energy              =   -2018.52394289 Ry
     estimated scf accuracy    <       0.01295808 Ry

     total magnetization       =     0.00 Bohr mag/cell
     absolute magnetization    =     0.01 Bohr mag/cell

     iteration # 15     ecut=    90.00 Ry     beta= 0.20
     Davidson diagonalization with overlap
     ethr =  1.08E-05,  avg # of iterations =  1.2

     negative rho (up, down):  1.665E-03 1.669E-03

     total cpu time spent up to now is      407.8 secs

     total energy              =   -2018.52472319 Ry
     estimated scf accuracy    <       0.00597962 Ry

     total magnetization       =     0.00 Bohr mag/cell
     absolute magnetization    =     0.01 Bohr mag/cell

     iteration # 16     ecut=    90.00 Ry     beta= 0.20
     Davidson diagonalization with overlap
     ethr =  4.98E-06,  avg # of iterations =  1.8

     negative rho (up, down):  1.666E-03 1.670E-03

     total cpu time spent up to now is      430.6 secs

     total energy              =   -2018.52485946 Ry
     estimated scf accuracy    <       0.00288963 Ry

     total magnetization       =     0.00 Bohr mag/cell
     absolute magnetization    =     0.01 Bohr mag/cell

     iteration # 17     ecut=    90.00 Ry     beta= 0.20
     Davidson diagonalization with overlap
     c_bands:  1 eigenvalues not converged
     c_bands:  1 eigenvalues not converged
     c_bands:  1 eigenvalues not converged
     ethr =  2.41E-06,  avg # of iterations =  3.5

     negative rho (up, down):  1.678E-03 1.682E-03

     total cpu time spent up to now is      455.6 secs

     total energy              =   -2018.52493213 Ry
     estimated scf accuracy    <       0.00099668 Ry

     total magnetization       =     0.00 Bohr mag/cell
     absolute magnetization    =     0.01 Bohr mag/cell

     iteration # 18     ecut=    90.00 Ry     beta= 0.20
     Davidson diagonalization with overlap
     c_bands:  1 eigenvalues not converged
     ethr =  8.31E-07,  avg # of iterations =  2.8

     negative rho (up, down):  1.661E-03 1.665E-03

     total cpu time spent up to now is      480.9 secs

     total energy              =   -2018.52494631 Ry
     estimated scf accuracy    <       0.00124509 Ry

     total magnetization       =     0.00 Bohr mag/cell
     absolute magnetization    =     0.01 Bohr mag/cell

     iteration # 19     ecut=    90.00 Ry     beta= 0.20
     Davidson diagonalization with overlap
     ethr =  8.31E-07,  avg # of iterations =  2.0

     negative rho (up, down):  1.661E-03 1.665E-03

     total cpu time spent up to now is      504.6 secs

     total energy              =   -2018.52495774 Ry
     estimated scf accuracy    <       0.00196041 Ry

     total magnetization       =     0.00 Bohr mag/cell
     absolute magnetization    =     0.01 Bohr mag/cell

     iteration # 20     ecut=    90.00 Ry     beta= 0.20
     Davidson diagonalization with overlap
     ethr =  8.31E-07,  avg # of iterations =  1.0

     negative rho (up, down):  1.659E-03 1.663E-03

     total cpu time spent up to now is      525.9 secs

     total energy              =   -2018.52503083 Ry
     estimated scf accuracy    <       0.00001219 Ry

     total magnetization       =     0.00 Bohr mag/cell
     absolute magnetization    =     0.01 Bohr mag/cell

     iteration # 21     ecut=    90.00 Ry     beta= 0.20
     Davidson diagonalization with overlap
     c_bands:  1 eigenvalues not converged
     ethr =  1.02E-08,  avg # of iterations =  7.9

     negative rho (up, down):  1.659E-03 1.663E-03

     total cpu time spent up to now is      569.0 secs

     total energy              =   -2018.52503672 Ry
     estimated scf accuracy    <       0.00002972 Ry

     total magnetization       =     0.00 Bohr mag/cell
     absolute magnetization    =     0.01 Bohr mag/cell

     iteration # 22     ecut=    90.00 Ry     beta= 0.20
     Davidson diagonalization with overlap
     ethr =  1.02E-08,  avg # of iterations =  1.5

     negative rho (up, down):  1.659E-03 1.663E-03

     total cpu time spent up to now is      591.7 secs

     total energy              =   -2018.52503665 Ry
     estimated scf accuracy    <       0.00001337 Ry

     total magnetization       =     0.00 Bohr mag/cell
     absolute magnetization    =     0.01 Bohr mag/cell

     iteration # 23     ecut=    90.00 Ry     beta= 0.20
     Davidson diagonalization with overlap
     ethr =  1.02E-08,  avg # of iterations =  2.3

     negative rho (up, down):  1.659E-03 1.663E-03

     total cpu time spent up to now is      616.2 secs

     total energy              =   -2018.52503665 Ry
     estimated scf accuracy    <       0.00001891 Ry

     total magnetization       =     0.00 Bohr mag/cell
     absolute magnetization    =     0.01 Bohr mag/cell

     iteration # 24     ecut=    90.00 Ry     beta= 0.20
     Davidson diagonalization with overlap
     ethr =  1.02E-08,  avg # of iterations =  1.0

     negative rho (up, down):  1.658E-03 1.662E-03

     total cpu time spent up to now is      637.5 secs

     total energy              =   -2018.52503660 Ry
     estimated scf accuracy    <       0.00000651 Ry

     total magnetization       =     0.00 Bohr mag/cell
     absolute magnetization    =     0.01 Bohr mag/cell

     iteration # 25     ecut=    90.00 Ry     beta= 0.20
     Davidson diagonalization with overlap
     ethr =  5.42E-09,  avg # of iterations =  3.0

     negative rho (up, down):  1.658E-03 1.663E-03

     total cpu time spent up to now is      663.5 secs

     total energy              =   -2018.52503618 Ry
     estimated scf accuracy    <       0.00003056 Ry

     total magnetization       =     0.00 Bohr mag/cell
     absolute magnetization    =     0.01 Bohr mag/cell

     iteration # 26     ecut=    90.00 Ry     beta= 0.20
     Davidson diagonalization with overlap
     ethr =  5.42E-09,  avg # of iterations =  1.7

     negative rho (up, down):  1.658E-03 1.662E-03

     total cpu time spent up to now is      686.2 secs

     total energy              =   -2018.52503708 Ry
     estimated scf accuracy    <       0.00000191 Ry

     total magnetization       =     0.00 Bohr mag/cell
     absolute magnetization    =     0.01 Bohr mag/cell

     iteration # 27     ecut=    90.00 Ry     beta= 0.20
     Davidson diagonalization with overlap
     c_bands:  1 eigenvalues not converged
     ethr =  1.59E-09,  avg # of iterations =  2.5

     negative rho (up, down):  1.658E-03 1.662E-03

     total cpu time spent up to now is      711.2 secs

     total energy              =   -2018.52503694 Ry
     estimated scf accuracy    <       0.00000322 Ry

     total magnetization       =     0.00 Bohr mag/cell
     absolute magnetization    =     0.01 Bohr mag/cell

     iteration # 28     ecut=    90.00 Ry     beta= 0.20
     Davidson diagonalization with overlap
     ethr =  1.59E-09,  avg # of iterations =  1.8

     negative rho (up, down):  1.658E-03 1.662E-03

     total cpu time spent up to now is      734.8 secs

     total energy              =   -2018.52503705 Ry
     estimated scf accuracy    <       0.00000263 Ry

     total magnetization       =     0.00 Bohr mag/cell
     absolute magnetization    =     0.01 Bohr mag/cell

     iteration # 29     ecut=    90.00 Ry     beta= 0.20
     Davidson diagonalization with overlap
     ethr =  1.59E-09,  avg # of iterations =  1.8

     negative rho (up, down):  1.657E-03 1.662E-03

     total cpu time spent up to now is      758.1 secs

     total energy              =   -2018.52503704 Ry
     estimated scf accuracy    <       0.00000298 Ry

     total magnetization       =     0.00 Bohr mag/cell
     absolute magnetization    =     0.01 Bohr mag/cell

     iteration # 30     ecut=    90.00 Ry     beta= 0.20
     Davidson diagonalization with overlap
     ethr =  1.59E-09,  avg # of iterations =  1.0

     negative rho (up, down):  1.657E-03 1.661E-03

     total cpu time spent up to now is      779.3 secs

     total energy              =   -2018.52503713 Ry
     estimated scf accuracy    <       0.00000096 Ry

     total magnetization       =     0.00 Bohr mag/cell
     absolute magnetization    =     0.01 Bohr mag/cell

     iteration # 31     ecut=    90.00 Ry     beta= 0.20
     Davidson diagonalization with overlap
     ethr =  7.98E-10,  avg # of iterations =  1.0

     negative rho (up, down):  1.657E-03 1.661E-03

     total cpu time spent up to now is      800.5 secs

     total energy              =   -2018.52503716 Ry
     estimated scf accuracy    <       0.00000007 Ry

     total magnetization       =     0.00 Bohr mag/cell
     absolute magnetization    =     0.01 Bohr mag/cell

     iteration # 32     ecut=    90.00 Ry     beta= 0.20
     Davidson diagonalization with overlap
     ethr =  5.89E-11,  avg # of iterations =  5.2

     negative rho (up, down):  1.657E-03 1.661E-03

     total cpu time spent up to now is      832.8 secs

     total energy              =   -2018.52503715 Ry
     estimated scf accuracy    <       0.00000082 Ry

     total magnetization       =     0.00 Bohr mag/cell
     absolute magnetization    =     0.01 Bohr mag/cell

     iteration # 33     ecut=    90.00 Ry     beta= 0.20
     Davidson diagonalization with overlap
     ethr =  5.89E-11,  avg # of iterations =  3.7

     negative rho (up, down):  1.657E-03 1.661E-03

     total cpu time spent up to now is      859.8 secs

     total energy              =   -2018.52503718 Ry
     estimated scf accuracy    <       0.00000003 Ry

     total magnetization       =     0.00 Bohr mag/cell
     absolute magnetization    =     0.01 Bohr mag/cell

     iteration # 34     ecut=    90.00 Ry     beta= 0.20
     Davidson diagonalization with overlap
     ethr =  2.44E-11,  avg # of iterations =  2.9

     negative rho (up, down):  1.657E-03 1.661E-03

     total cpu time spent up to now is      884.7 secs

     total energy              =   -2018.52503718 Ry
     estimated scf accuracy    <       0.00000004 Ry

     total magnetization       =     0.00 Bohr mag/cell
     absolute magnetization    =     0.01 Bohr mag/cell

     iteration # 35     ecut=    90.00 Ry     beta= 0.20
     Davidson diagonalization with overlap
     ethr =  2.44E-11,  avg # of iterations =  1.0

     negative rho (up, down):  1.657E-03 1.661E-03

     Magnetic moment per site:
     atom:    1    charge:   14.1929    magn:   -0.0010    constr:    0.0000
     atom:    2    charge:   11.8096    magn:    0.0019    constr:    0.0000
     atom:    3    charge:   14.1929    magn:   -0.0006    constr:    0.0000
     atom:    4    charge:   11.8096    magn:    0.0014    constr:    0.0000
     atom:    5    charge:   14.1929    magn:   -0.0016    constr:    0.0000
     atom:    6    charge:   11.8096    magn:    0.0009    constr:    0.0000
     atom:    7    charge:   14.1929    magn:   -0.0013    constr:    0.0000
     atom:    8    charge:   11.8096    magn:    0.0010    constr:    0.0000

     total cpu time spent up to now is      906.0 secs

     End of self-consistent calculation

     Number of k-points >= 100: set verbosity='high' to print the bands.

     the Fermi energy is    17.9114 ev

!    total energy              =   -2018.52503719 Ry
     estimated scf accuracy    <          9.2E-09 Ry
     smearing contrib. (-TS)   =      -0.00525713 Ry
     internal energy E=F+TS    =   -2018.51978006 Ry

     total magnetization       =     0.00 Bohr mag/cell
     absolute magnetization    =     0.01 Bohr mag/cell

     convergence has been achieved in  35 iterations

     negative rho (up, down):  1.657E-03 1.661E-03

     Forces acting on atoms (cartesian axes, Ry/au):

     atom    1 type  1   force =     0.00000134   -0.00000004    0.00000138
     atom    2 type  2   force =     0.00000024   -0.00000034   -0.00000013
     atom    3 type  1   force =     0.00000289   -0.00000036    0.00000056
     atom    4 type  2   force =     0.00000007   -0.00000024   -0.00000026
     atom    5 type  1   force =    -0.00000205    0.00000076    0.00000009
     atom    6 type  2   force =     0.00000043   -0.00000040   -0.00000036
     atom    7 type  1   force =    -0.00000315    0.00000114   -0.00000127
     atom    8 type  2   force =     0.00000024   -0.00000051   -0.00000001

     Total force =     0.000006     Total SCF correction =     0.000010
     SCF correction compared to forces is large: reduce conv_thr to get better values


     Computing stress (Cartesian axis) and pressure


     negative rho (up, down):  1.657E-03 1.661E-03
          total   stress  (Ry/bohr**3)                   (kbar)     P=        0.12
   0.00000087   0.00000001   0.00000003            0.13        0.00        0.00
   0.00000001   0.00000076  -0.00000001            0.00        0.11       -0.00
   0.00000003  -0.00000001   0.00000088            0.00       -0.00        0.13


     Entering Dynamics;  it =     1   time =  0.00000 pico-seconds

  new lattice vectors (alat unit) :
   1.000001939  -0.000000756  -0.000000056
  -0.000000756   1.000000726   0.000000689
  -0.000000056   0.000000689   1.000002252
  new unit-cell volume =    654.5058 (a.u.)^3
  new positions in cryst coord
Fe      -0.000976494   0.500173456  -0.000438492
Cr       0.500045746  -0.000047726   0.499786009
Fe       0.000212109  -0.000002279   0.500799729
Cr       0.500151179   0.499704446  -0.000499179
Fe       0.500761771  -0.000526186  -0.000556891
Cr      -0.000221488   0.500266037   0.500709435
Fe       0.500002614   0.500355010   0.500195655
Cr       0.000024563   0.000077242   0.000003734
  new positions in cart coord (alat unit)
Fe      -0.000976874   0.500173819  -0.000438148
Cr       0.500046688  -0.000047760   0.499787106
Fe       0.000212082  -0.000001934   0.500800857
Cr       0.500151771   0.499704431  -0.000498863
Fe       0.500762742  -0.000526565  -0.000556921
Cr      -0.000221895   0.500266746   0.500710908
Fe       0.500003176   0.500355340   0.500197098
Cr       0.000024563   0.000077242   0.000003734

     Ekin =     0.01995091 Ry    T =    0.0 K  Etot =    -2018.50508183
     new unit-cell volume =    654.50581 a.u.^3 (    96.98775 Ang^3 )
     density =      7.38544 g/cm^3

CELL_PARAMETERS (angstrom)
   4.594508907  -0.000003475  -0.000000258
  -0.000003475   4.594503335   0.000003168
  -0.000000258   0.000003168   4.594510347

ATOMIC_POSITIONS (angstrom)
Fe           -0.0044882494        2.2980486123       -0.0020130729
Cr            2.2974645060       -0.0002194316        2.2962718601
Fe            0.0009744086       -0.0000088864        2.3009295372
Cr            2.2979473126        2.2958920062       -0.0022920277
Fe            2.3007544185       -0.0024193044       -0.0025587736
Cr           -0.0010194955        2.2984755627        2.3005162666
Fe            2.2972645943        2.2988826110        2.2981555682
Cr            0.0001128545        0.0003548864        0.0000171556



     Writing output data file ./pwscf.save/
     NEW-OLD atomic charge density approx. for the potential

     Check: negative core charge=   -0.000008

     negative rho (up, down):  1.652E-03 1.657E-03
     extrapolated charge  120.00057, renormalised to  120.00000
     Generating pointlists ...

     total cpu time spent up to now is      927.1 secs

     Self-consistent Calculation

     iteration #  1     ecut=    90.00 Ry     beta= 0.20
     Davidson diagonalization with overlap
     ethr =  1.00E-06,  avg # of iterations =  6.6

     negative rho (up, down):  1.652E-03 1.657E-03

     total cpu time spent up to now is      986.7 secs

     total energy              =   -2018.52500791 Ry
     estimated scf accuracy    <       0.00014958 Ry

     total magnetization       =     0.00 Bohr mag/cell
     absolute magnetization    =     0.01 Bohr mag/cell

     iteration #  2     ecut=    90.00 Ry     beta= 0.20
     Davidson diagonalization with overlap
     ethr =  1.25E-07,  avg # of iterations =  4.8

     negative rho (up, down):  1.653E-03 1.657E-03

     total cpu time spent up to now is     1021.3 secs

     total energy              =   -2018.52502660 Ry
     estimated scf accuracy    <       0.00004302 Ry

     total magnetization       =     0.00 Bohr mag/cell
     absolute magnetization    =     0.01 Bohr mag/cell

     iteration #  3     ecut=    90.00 Ry     beta= 0.20
     Davidson diagonalization with overlap
     ethr =  3.58E-08,  avg # of iterations =  4.8

     negative rho (up, down):  1.652E-03 1.657E-03

     total cpu time spent up to now is     1054.3 secs

     total energy              =   -2018.52501921 Ry
     estimated scf accuracy    <       0.00033705 Ry

     total magnetization       =     0.00 Bohr mag/cell
     absolute magnetization    =     0.01 Bohr mag/cell

     iteration #  4     ecut=    90.00 Ry     beta= 0.20
     Davidson diagonalization with overlap
     ethr =  3.58E-08,  avg # of iterations =  3.2

     negative rho (up, down):  1.652E-03 1.657E-03

     total cpu time spent up to now is     1080.4 secs

     total energy              =   -2018.52502926 Ry
     estimated scf accuracy    <       0.00001521 Ry

     total magnetization       =     0.00 Bohr mag/cell
     absolute magnetization    =     0.01 Bohr mag/cell

     iteration #  5     ecut=    90.00 Ry     beta= 0.20
     Davidson diagonalization with overlap
     ethr =  1.27E-08,  avg # of iterations =  3.3

     negative rho (up, down):  1.652E-03 1.657E-03

     total cpu time spent up to now is     1106.1 secs

     total energy              =   -2018.52502106 Ry
     estimated scf accuracy    <       0.00000909 Ry

     total magnetization       =     0.00 Bohr mag/cell
     absolute magnetization    =     0.01 Bohr mag/cell

     iteration #  6     ecut=    90.00 Ry     beta= 0.20
     Davidson diagonalization with overlap
     ethr =  7.58E-09,  avg # of iterations =  2.1

     negative rho (up, down):  1.652E-03 1.657E-03

     total cpu time spent up to now is     1130.2 secs

     total energy              =   -2018.52502077 Ry
     estimated scf accuracy    <       0.00000340 Ry

     total magnetization       =     0.00 Bohr mag/cell
     absolute magnetization    =     0.01 Bohr mag/cell

     iteration #  7     ecut=    90.00 Ry     beta= 0.20
     Davidson diagonalization with overlap
     ethr =  2.83E-09,  avg # of iterations =  2.3

     negative rho (up, down):  1.652E-03 1.657E-03

     total cpu time spent up to now is     1155.5 secs

     total energy              =   -2018.52502010 Ry
     estimated scf accuracy    <       0.00000839 Ry

     total magnetization       =     0.00 Bohr mag/cell
     absolute magnetization    =     0.01 Bohr mag/cell

     iteration #  8     ecut=    90.00 Ry     beta= 0.20
     Davidson diagonalization with overlap
     ethr =  2.83E-09,  avg # of iterations =  1.2

     negative rho (up, down):  1.652E-03 1.657E-03

     total cpu time spent up to now is     1177.2 secs

     total energy              =   -2018.52502038 Ry
     estimated scf accuracy    <       0.00000037 Ry

     total magnetization       =     0.00 Bohr mag/cell
     absolute magnetization    =     0.01 Bohr mag/cell

     iteration #  9     ecut=    90.00 Ry     beta= 0.20
     Davidson diagonalization with overlap
     ethr =  3.04E-10,  avg # of iterations =  5.4

     negative rho (up, down):  1.652E-03 1.657E-03

     total cpu time spent up to now is     1213.0 secs

     total energy              =   -2018.52502032 Ry
     estimated scf accuracy    <       0.00000371 Ry

     total magnetization       =     0.00 Bohr mag/cell
     absolute magnetization    =     0.01 Bohr mag/cell

     iteration # 10     ecut=    90.00 Ry     beta= 0.20
     Davidson diagonalization with overlap
     ethr =  3.04E-10,  avg # of iterations =  2.8

     negative rho (up, down):  1.652E-03 1.657E-03

     total cpu time spent up to now is     1238.9 secs

     total energy              =   -2018.52502034 Ry
     estimated scf accuracy    <       0.00000014 Ry

     total magnetization       =     0.00 Bohr mag/cell
     absolute magnetization    =     0.01 Bohr mag/cell

     iteration # 11     ecut=    90.00 Ry     beta= 0.20
     Davidson diagonalization with overlap
     ethr =  1.13E-10,  avg # of iterations =  4.4

     negative rho (up, down):  1.652E-03 1.657E-03

     total cpu time spent up to now is     1267.4 secs

     total energy              =   -2018.52502037 Ry
     estimated scf accuracy    <       0.00000038 Ry

     total magnetization       =     0.00 Bohr mag/cell
     absolute magnetization    =     0.01 Bohr mag/cell

     iteration # 12     ecut=    90.00 Ry     beta= 0.20
     Davidson diagonalization with overlap
     ethr =  1.13E-10,  avg # of iterations =  3.2

     negative rho (up, down):  1.652E-03 1.657E-03

     total cpu time spent up to now is     1293.6 secs

     total energy              =   -2018.52502033 Ry
     estimated scf accuracy    <       0.00000046 Ry

     total magnetization       =     0.00 Bohr mag/cell
     absolute magnetization    =     0.01 Bohr mag/cell

     iteration # 13     ecut=    90.00 Ry     beta= 0.20
     Davidson diagonalization with overlap
     ethr =  1.13E-10,  avg # of iterations =  1.8

     negative rho (up, down):  1.652E-03 1.657E-03

     total cpu time spent up to now is     1317.4 secs

     total energy              =   -2018.52502035 Ry
     estimated scf accuracy    <       0.00000014 Ry

     total magnetization       =     0.00 Bohr mag/cell
     absolute magnetization    =     0.01 Bohr mag/cell

     iteration # 14     ecut=    90.00 Ry     beta= 0.20
     Davidson diagonalization with overlap
     ethr =  1.13E-10,  avg # of iterations =  1.5

     negative rho (up, down):  1.652E-03 1.657E-03

     total cpu time spent up to now is     1340.0 secs

     total energy              =   -2018.52502034 Ry
     estimated scf accuracy    <       0.00000009 Ry

     total magnetization       =     0.00 Bohr mag/cell
     absolute magnetization    =     0.01 Bohr mag/cell

     iteration # 15     ecut=    90.00 Ry     beta= 0.20
     Davidson diagonalization with overlap
     ethr =  7.85E-11,  avg # of iterations =  1.5

     negative rho (up, down):  1.652E-03 1.657E-03

     total cpu time spent up to now is     1362.6 secs

     total energy              =   -2018.52502034 Ry
     estimated scf accuracy    <       0.00000013 Ry

     total magnetization       =     0.00 Bohr mag/cell
     absolute magnetization    =     0.01 Bohr mag/cell

     iteration # 16     ecut=    90.00 Ry     beta= 0.20
     Davidson diagonalization with overlap
     ethr =  7.85E-11,  avg # of iterations =  1.0

     negative rho (up, down):  1.652E-03 1.657E-03

     Magnetic moment per site:
     atom:    1    charge:   14.1929    magn:   -0.0011    constr:    0.0000
     atom:    2    charge:   11.8096    magn:    0.0019    constr:    0.0000
     atom:    3    charge:   14.1929    magn:   -0.0010    constr:    0.0000
     atom:    4    charge:   11.8097    magn:    0.0017    constr:    0.0000
     atom:    5    charge:   14.1929    magn:   -0.0017    constr:    0.0000
     atom:    6    charge:   11.8097    magn:    0.0012    constr:    0.0000
     atom:    7    charge:   14.1929    magn:   -0.0015    constr:    0.0000
     atom:    8    charge:   11.8096    magn:    0.0013    constr:    0.0000

     total cpu time spent up to now is     1383.7 secs

     End of self-consistent calculation

     Number of k-points >= 100: set verbosity='high' to print the bands.

     the Fermi energy is    17.9113 ev

!    total energy              =   -2018.52502034 Ry
     estimated scf accuracy    <          8.1E-09 Ry
     smearing contrib. (-TS)   =      -0.00526047 Ry
     internal energy E=F+TS    =   -2018.51975988 Ry

     total magnetization       =     0.00 Bohr mag/cell
     absolute magnetization    =     0.01 Bohr mag/cell

     convergence has been achieved in  16 iterations

     negative rho (up, down):  1.652E-03 1.657E-03

     Forces acting on atoms (cartesian axes, Ry/au):

     atom    1 type  1   force =     0.00066036    0.00001961    0.00113815
     atom    2 type  2   force =    -0.00009287    0.00065883   -0.00090471
     atom    3 type  1   force =     0.00004200    0.00026288   -0.00054495
     atom    4 type  2   force =    -0.00145504   -0.00072339    0.00076145
     atom    5 type  1   force =    -0.00038495   -0.00009762    0.00022869
     atom    6 type  2   force =     0.00039637   -0.00035052   -0.00111550
     atom    7 type  1   force =    -0.00031579   -0.00017928   -0.00080934
     atom    8 type  2   force =     0.00114992    0.00040949    0.00124623

     Total force =     0.003485     Total SCF correction =     0.000191


     Computing stress (Cartesian axis) and pressure


     negative rho (up, down):  1.652E-03 1.657E-03
          total   stress  (Ry/bohr**3)                   (kbar)     P=        0.14
   0.00000096   0.00000003   0.00000000            0.14        0.00        0.00
   0.00000003   0.00000090  -0.00000000            0.00        0.13       -0.00
   0.00000000  -0.00000000   0.00000100            0.00       -0.00        0.15


     Entering Dynamics;  it =     2   time =  0.00097 pico-seconds

  new lattice vectors (alat unit) :
   1.000006796  -0.000002645  -0.000000200
  -0.000002645   1.000002557   0.000002413
  -0.000000200   0.000002413   1.000007894
  new unit-cell volume =    654.5139 (a.u.)^3
  new positions in cryst coord
Fe      -0.001952384   0.500346927  -0.000875952
Cr       0.500091402  -0.000094811   0.499571140
Fe       0.000424255  -0.000004322   0.501598959
Cr       0.500300942   0.499408192  -0.000997612
Fe       0.501523187  -0.001052455  -0.001113570
Cr      -0.000442588   0.500531730   0.501417780
Fe       0.500004942   0.500709857   0.500390575
Cr       0.000050244   0.000154881   0.000008679
  new positions in cart coord (alat unit)
Fe      -0.001953720   0.500348210  -0.000874751
Cr       0.500094700  -0.000094928   0.499574984
Fe       0.000424158  -0.000003113   0.501602918
Cr       0.500303022   0.499408143  -0.000996515
Fe       0.501526598  -0.001053787  -0.001113681
Cr      -0.000444015   0.500534222   0.501422946
Fe       0.500006916   0.500711023   0.500395634
Cr       0.000050244   0.000154881   0.000008679

     Ekin =     0.01994144 Ry    T =  233.2 K  Etot =    -2018.50507445
     new unit-cell volume =    654.51388 a.u.^3 (    96.98895 Ang^3 )
     density =      7.38535 g/cm^3

CELL_PARAMETERS (angstrom)
   4.594531222  -0.000012151  -0.000000917
  -0.000012151   4.594511747   0.000011088
  -0.000000917   0.000011088   4.594536268

ATOMIC_POSITIONS (angstrom)
Fe           -0.0089763672        2.2988498487       -0.0040190419
Cr            2.2976851014       -0.0004361465        2.2952972622
Fe            0.0019487938       -0.0000143007        2.3046146077
Cr            2.2986422331        2.2945307148       -0.0045784880
Fe            2.3042639532       -0.0048416248       -0.0051168083
Cr           -0.0020400268        2.2997044808        2.3037877267
Fe            2.2972817758        2.3005167933        2.2990677382
Cr            0.0002308451        0.0007116020        0.0000398778



     Writing output data file ./pwscf.save/
     NEW-OLD atomic charge density approx. for the potential

     Check: negative core charge=   -0.000008

     negative rho (up, down):  1.650E-03 1.656E-03
     extrapolated charge  120.00143, renormalised to  120.00000
     Generating pointlists ...

     total cpu time spent up to now is     1404.8 secs

     Self-consistent Calculation

     iteration #  1     ecut=    90.00 Ry     beta= 0.20
     Davidson diagonalization with overlap
     ethr =  1.00E-06,  avg # of iterations =  6.7

     negative rho (up, down):  1.650E-03 1.656E-03

     total cpu time spent up to now is     1464.2 secs

     total energy              =   -2018.52495583 Ry
     estimated scf accuracy    <       0.00015135 Ry

     total magnetization       =     0.00 Bohr mag/cell
     absolute magnetization    =     0.01 Bohr mag/cell

     iteration #  2     ecut=    90.00 Ry     beta= 0.20
     Davidson diagonalization with overlap
     ethr =  1.26E-07,  avg # of iterations =  4.8

     negative rho (up, down):  1.650E-03 1.656E-03

     total cpu time spent up to now is     1499.2 secs

     total energy              =   -2018.52497469 Ry
     estimated scf accuracy    <       0.00008017 Ry

     total magnetization       =     0.00 Bohr mag/cell
     absolute magnetization    =     0.01 Bohr mag/cell

     iteration #  3     ecut=    90.00 Ry     beta= 0.20
     Davidson diagonalization with overlap
     ethr =  6.68E-08,  avg # of iterations =  3.9

     negative rho (up, down):  1.650E-03 1.656E-03

     total cpu time spent up to now is     1527.6 secs

     total energy              =   -2018.52496423 Ry
     estimated scf accuracy    <       0.00050144 Ry

     total magnetization       =     0.00 Bohr mag/cell
     absolute magnetization    =     0.01 Bohr mag/cell

     iteration #  4     ecut=    90.00 Ry     beta= 0.20
     Davidson diagonalization with overlap
     ethr =  6.68E-08,  avg # of iterations =  2.2

     negative rho (up, down):  1.650E-03 1.656E-03

     total cpu time spent up to now is     1551.5 secs

     total energy              =   -2018.52497858 Ry
     estimated scf accuracy    <       0.00002188 Ry

     total magnetization       =     0.00 Bohr mag/cell
     absolute magnetization    =     0.01 Bohr mag/cell

     iteration #  5     ecut=    90.00 Ry     beta= 0.20
     Davidson diagonalization with overlap
     ethr =  1.82E-08,  avg # of iterations =  2.8

     negative rho (up, down):  1.650E-03 1.656E-03

     total cpu time spent up to now is     1576.5 secs

     total energy              =   -2018.52497158 Ry
     estimated scf accuracy    <       0.00000665 Ry

     total magnetization       =     0.00 Bohr mag/cell
     absolute magnetization    =     0.01 Bohr mag/cell

     iteration #  6     ecut=    90.00 Ry     beta= 0.20
     Davidson diagonalization with overlap
     ethr =  5.54E-09,  avg # of iterations =  4.0

     negative rho (up, down):  1.650E-03 1.656E-03

     total cpu time spent up to now is     1604.5 secs

     total energy              =   -2018.52497086 Ry
     estimated scf accuracy    <       0.00000462 Ry

     total magnetization       =     0.00 Bohr mag/cell
     absolute magnetization    =     0.01 Bohr mag/cell

     iteration #  7     ecut=    90.00 Ry     beta= 0.20
     Davidson diagonalization with overlap
     ethr =  3.85E-09,  avg # of iterations =  2.2

     negative rho (up, down):  1.649E-03 1.656E-03

     total cpu time spent up to now is     1628.7 secs

     total energy              =   -2018.52496994 Ry
     estimated scf accuracy    <       0.00000955 Ry

     total magnetization       =     0.00 Bohr mag/cell
     absolute magnetization    =     0.01 Bohr mag/cell

     iteration #  8     ecut=    90.00 Ry     beta= 0.20
     Davidson diagonalization with overlap
     ethr =  3.85E-09,  avg # of iterations =  1.0

     negative rho (up, down):  1.650E-03 1.656E-03

     total cpu time spent up to now is     1649.9 secs

     total energy              =   -2018.52497029 Ry
     estimated scf accuracy    <       0.00000058 Ry

     total magnetization       =     0.00 Bohr mag/cell
     absolute magnetization    =     0.01 Bohr mag/cell

     iteration #  9     ecut=    90.00 Ry     beta= 0.20
     Davidson diagonalization with overlap
     ethr =  4.84E-10,  avg # of iterations =  5.2

     negative rho (up, down):  1.649E-03 1.656E-03

     total cpu time spent up to now is     1683.8 secs

     total energy              =   -2018.52497013 Ry
     estimated scf accuracy    <       0.00000458 Ry

     total magnetization       =     0.00 Bohr mag/cell
     absolute magnetization    =     0.01 Bohr mag/cell

     iteration # 10     ecut=    90.00 Ry     beta= 0.20
     Davidson diagonalization with overlap
     ethr =  4.84E-10,  avg # of iterations =  2.6

     negative rho (up, down):  1.649E-03 1.656E-03

     total cpu time spent up to now is     1709.0 secs

     total energy              =   -2018.52497017 Ry
     estimated scf accuracy    <       0.00000015 Ry

     total magnetization       =     0.00 Bohr mag/cell
     absolute magnetization    =     0.01 Bohr mag/cell

     iteration # 11     ecut=    90.00 Ry     beta= 0.20
     Davidson diagonalization with overlap
     ethr =  1.25E-10,  avg # of iterations =  4.9

     negative rho (up, down):  1.649E-03 1.656E-03

     total cpu time spent up to now is     1739.9 secs

     total energy              =   -2018.52497022 Ry
     estimated scf accuracy    <       0.00000051 Ry

     total magnetization       =     0.00 Bohr mag/cell
     absolute magnetization    =     0.01 Bohr mag/cell

     iteration # 12     ecut=    90.00 Ry     beta= 0.20
     Davidson diagonalization with overlap
     ethr =  1.25E-10,  avg # of iterations =  2.2

     negative rho (up, down):  1.649E-03 1.656E-03

     total cpu time spent up to now is     1764.5 secs

     total energy              =   -2018.52497016 Ry
     estimated scf accuracy    <       0.00000025 Ry

     total magnetization       =     0.00 Bohr mag/cell
     absolute magnetization    =     0.01 Bohr mag/cell

     iteration # 13     ecut=    90.00 Ry     beta= 0.20
     Davidson diagonalization with overlap
     ethr =  1.25E-10,  avg # of iterations =  1.5

     negative rho (up, down):  1.649E-03 1.656E-03

     total cpu time spent up to now is     1786.9 secs

     total energy              =   -2018.52497017 Ry
     estimated scf accuracy    <       0.00000003 Ry

     total magnetization       =     0.00 Bohr mag/cell
     absolute magnetization    =     0.01 Bohr mag/cell

     iteration # 14     ecut=    90.00 Ry     beta= 0.20
     Davidson diagonalization with overlap
     ethr =  2.26E-11,  avg # of iterations =  3.0

     negative rho (up, down):  1.649E-03 1.656E-03

     total cpu time spent up to now is     1813.3 secs

     total energy              =   -2018.52497017 Ry
     estimated scf accuracy    <       0.00000005 Ry

     total magnetization       =     0.00 Bohr mag/cell
     absolute magnetization    =     0.01 Bohr mag/cell

     iteration # 15     ecut=    90.00 Ry     beta= 0.20
     Davidson diagonalization with overlap
     ethr =  2.26E-11,  avg # of iterations =  2.9

     negative rho (up, down):  1.649E-03 1.656E-03

     total cpu time spent up to now is     1838.9 secs

     total energy              =   -2018.52497018 Ry
     estimated scf accuracy    <       0.00000008 Ry

     total magnetization       =     0.00 Bohr mag/cell
     absolute magnetization    =     0.01 Bohr mag/cell

     iteration # 16     ecut=    90.00 Ry     beta= 0.20
     Davidson diagonalization with overlap
     ethr =  2.26E-11,  avg # of iterations =  1.1

     negative rho (up, down):  1.649E-03 1.656E-03

     Magnetic moment per site:
     atom:    1    charge:   14.1930    magn:   -0.0014    constr:    0.0000
     atom:    2    charge:   11.8096    magn:    0.0021    constr:    0.0000
     atom:    3    charge:   14.1929    magn:   -0.0013    constr:    0.0000
     atom:    4    charge:   11.8097    magn:    0.0020    constr:    0.0000
     atom:    5    charge:   14.1929    magn:   -0.0019    constr:    0.0000
     atom:    6    charge:   11.8097    magn:    0.0016    constr:    0.0000
     atom:    7    charge:   14.1929    magn:   -0.0017    constr:    0.0000
     atom:    8    charge:   11.8097    magn:    0.0017    constr:    0.0000

     total cpu time spent up to now is     1860.4 secs

     End of self-consistent calculation

     Number of k-points >= 100: set verbosity='high' to print the bands.

     the Fermi energy is    17.9110 ev

!    total energy              =   -2018.52497018 Ry
     estimated scf accuracy    <          4.3E-09 Ry
     smearing contrib. (-TS)   =      -0.00527050 Ry
     internal energy E=F+TS    =   -2018.51969968 Ry

     total magnetization       =     0.00 Bohr mag/cell
     absolute magnetization    =     0.01 Bohr mag/cell

     convergence has been achieved in  16 iterations

     negative rho (up, down):  1.649E-03 1.656E-03

     Forces acting on atoms (cartesian axes, Ry/au):

     atom    1 type  1   force =     0.00152219    0.00001096    0.00240433
     atom    2 type  2   force =    -0.00018249    0.00132117   -0.00180494
     atom    3 type  1   force =     0.00004845    0.00053146   -0.00126646
     atom    4 type  2   force =    -0.00291666   -0.00144838    0.00152594
     atom    5 type  1   force =    -0.00091987   -0.00010446    0.00057310
     atom    6 type  2   force =     0.00079034   -0.00069864   -0.00222939
     atom    7 type  1   force =    -0.00064410   -0.00043280   -0.00170065
     atom    8 type  2   force =     0.00230215    0.00082068    0.00249806

     Total force =     0.007137     Total SCF correction =     0.000358


     Computing stress (Cartesian axis) and pressure


     negative rho (up, down):  1.649E-03 1.656E-03
          total   stress  (Ry/bohr**3)                   (kbar)     P=        0.14
   0.00000099   0.00000011   0.00000002            0.15        0.02        0.00
   0.00000011   0.00000066  -0.00000002            0.02        0.10       -0.00
   0.00000002  -0.00000002   0.00000114            0.00       -0.00        0.17


     Entering Dynamics;  it =     3   time =  0.00194 pico-seconds

  new lattice vectors (alat unit) :
   1.000014568  -0.000005654  -0.000000428
  -0.000005654   1.000005466   0.000005169
  -0.000000428   0.000005169   1.000016931
  new unit-cell volume =    654.5268 (a.u.)^3
  new positions in cryst coord
Fe      -0.002926883   0.500520405  -0.001311230
Cr       0.500136879  -0.000140610   0.499354520
Fe       0.000636443  -0.000005886   0.502397030
Cr       0.500447867   0.499110534  -0.001494554
Fe       0.502283757  -0.001578811  -0.001669719
Cr      -0.000662916   0.500796739   0.502123946
Fe       0.500006690   0.501064309   0.500583951
Cr       0.000078163   0.000233318   0.000016052
  new positions in cart coord (alat unit)
Fe      -0.002929754   0.500523150  -0.001308663
Cr       0.500143952  -0.000140857   0.499362760
Fe       0.000636237  -0.000003293   0.502405536
Cr       0.500452336   0.499110425  -0.001492214
Fe       0.502291084  -0.001581668  -0.001669970
Cr      -0.000665972   0.500802076   0.502135036
Fe       0.500010927   0.501066809   0.500594803
Cr       0.000078163   0.000233319   0.000016054

     Ekin =     0.01989673 Ry    T =  233.0 K  Etot =    -2018.50506901
     new unit-cell volume =    654.52678 a.u.^3 (    96.99086 Ang^3 )
     density =      7.38521 g/cm^3

CELL_PARAMETERS (angstrom)
   4.594566931  -0.000025976  -0.000001966
  -0.000025976   4.594525113   0.000023748
  -0.000001966   0.000023748   4.594577791

ATOMIC_POSITIONS (angstrom)
Fe           -0.0134607569        2.2996536148       -0.0060126539
Cr            2.2979113855       -0.0006471683        2.2943222018
Fe            0.0029231910       -0.0000151297        2.3083022371
Cr            2.2993282561        2.2931628472       -0.0068559762
Fe            2.3077763853       -0.0072669724       -0.0076726773
Cr           -0.0030598062        2.3009351362        2.3070594248
Fe            2.2973002025        2.3021514529        2.2999828212
Cr            0.0003591179        0.0010719837        0.0000737583



     Writing output data file ./pwscf.save/
     NEW-OLD atomic charge density approx. for the potential

     Check: negative core charge=   -0.000008

     negative rho (up, down):  1.661E-03 1.668E-03
     extrapolated charge  120.00229, renormalised to  120.00000
     Generating pointlists ...

     total cpu time spent up to now is     1881.4 secs

     Self-consistent Calculation

     iteration #  1     ecut=    90.00 Ry     beta= 0.20
     Davidson diagonalization with overlap
     ethr =  1.00E-06,  avg # of iterations =  6.6

     negative rho (up, down):  1.661E-03 1.668E-03

     total cpu time spent up to now is     1940.6 secs

     total energy              =   -2018.52487209 Ry
     estimated scf accuracy    <       0.00015292 Ry

     total magnetization       =     0.00 Bohr mag/cell
     absolute magnetization    =     0.02 Bohr mag/cell

     iteration #  2     ecut=    90.00 Ry     beta= 0.20
     Davidson diagonalization with overlap
     ethr =  1.27E-07,  avg # of iterations =  4.9

     negative rho (up, down):  1.662E-03 1.669E-03

     total cpu time spent up to now is     1975.5 secs

     total energy              =   -2018.52489025 Ry
     estimated scf accuracy    <       0.00014891 Ry

     total magnetization       =     0.00 Bohr mag/cell
     absolute magnetization    =     0.02 Bohr mag/cell

     iteration #  3     ecut=    90.00 Ry     beta= 0.20
     Davidson diagonalization with overlap
     ethr =  1.24E-07,  avg # of iterations =  2.1

     negative rho (up, down):  1.661E-03 1.669E-03

     total cpu time spent up to now is     1999.9 secs

     total energy              =   -2018.52488945 Ry
     estimated scf accuracy    <       0.00023392 Ry

     total magnetization       =     0.00 Bohr mag/cell
     absolute magnetization    =     0.02 Bohr mag/cell

     iteration #  4     ecut=    90.00 Ry     beta= 0.20
     Davidson diagonalization with overlap
     ethr =  1.24E-07,  avg # of iterations =  1.0

     negative rho (up, down):  1.661E-03 1.669E-03

     total cpu time spent up to now is     2021.0 secs

     total energy              =   -2018.52489539 Ry
     estimated scf accuracy    <       0.00004660 Ry

     total magnetization       =     0.00 Bohr mag/cell
     absolute magnetization    =     0.02 Bohr mag/cell

     iteration #  5     ecut=    90.00 Ry     beta= 0.20
     Davidson diagonalization with overlap
     ethr =  3.88E-08,  avg # of iterations =  1.3

     negative rho (up, down):  1.661E-03 1.668E-03

     total cpu time spent up to now is     2043.0 secs

     total energy              =   -2018.52488959 Ry
     estimated scf accuracy    <       0.00000796 Ry

     total magnetization       =     0.00 Bohr mag/cell
     absolute magnetization    =     0.02 Bohr mag/cell

     iteration #  6     ecut=    90.00 Ry     beta= 0.20
     Davidson diagonalization with overlap
     ethr =  6.63E-09,  avg # of iterations =  4.0

     negative rho (up, down):  1.661E-03 1.669E-03

     total cpu time spent up to now is     2071.9 secs

     total energy              =   -2018.52489026 Ry
     estimated scf accuracy    <       0.00000598 Ry

     total magnetization       =     0.00 Bohr mag/cell
     absolute magnetization    =     0.02 Bohr mag/cell

     iteration #  7     ecut=    90.00 Ry     beta= 0.20
     Davidson diagonalization with overlap
     ethr =  4.98E-09,  avg # of iterations =  1.8

     negative rho (up, down):  1.661E-03 1.669E-03

     total cpu time spent up to now is     2094.8 secs

     total energy              =   -2018.52488763 Ry
     estimated scf accuracy    <       0.00000570 Ry

     total magnetization       =     0.00 Bohr mag/cell
     absolute magnetization    =     0.02 Bohr mag/cell

     iteration #  8     ecut=    90.00 Ry     beta= 0.20
     Davidson diagonalization with overlap
     ethr =  4.75E-09,  avg # of iterations =  1.0

     negative rho (up, down):  1.661E-03 1.669E-03

     total cpu time spent up to now is     2116.0 secs

     total energy              =   -2018.52488803 Ry
     estimated scf accuracy    <       0.00000120 Ry

     total magnetization       =     0.00 Bohr mag/cell
     absolute magnetization    =     0.02 Bohr mag/cell

     iteration #  9     ecut=    90.00 Ry     beta= 0.20
     Davidson diagonalization with overlap
     ethr =  1.00E-09,  avg # of iterations =  4.2

     negative rho (up, down):  1.661E-03 1.669E-03

     total cpu time spent up to now is     2145.3 secs

     total energy              =   -2018.52488756 Ry
     estimated scf accuracy    <       0.00000775 Ry

     total magnetization       =     0.00 Bohr mag/cell
     absolute magnetization    =     0.02 Bohr mag/cell

     iteration # 10     ecut=    90.00 Ry     beta= 0.20
     Davidson diagonalization with overlap
     ethr =  1.00E-09,  avg # of iterations =  2.1

     negative rho (up, down):  1.661E-03 1.669E-03

     total cpu time spent up to now is     2169.2 secs

     total energy              =   -2018.52488784 Ry
     estimated scf accuracy    <       0.00000052 Ry

     total magnetization       =     0.00 Bohr mag/cell
     absolute magnetization    =     0.02 Bohr mag/cell

     iteration # 11     ecut=    90.00 Ry     beta= 0.20
     Davidson diagonalization with overlap
     ethr =  4.36E-10,  avg # of iterations =  2.5

     negative rho (up, down):  1.661E-03 1.669E-03

     total cpu time spent up to now is     2194.2 secs

     total energy              =   -2018.52488775 Ry
     estimated scf accuracy    <       0.00000109 Ry

     total magnetization       =     0.00 Bohr mag/cell
     absolute magnetization    =     0.02 Bohr mag/cell

     iteration # 12     ecut=    90.00 Ry     beta= 0.20
     Davidson diagonalization with overlap
     ethr =  4.36E-10,  avg # of iterations =  1.1

     negative rho (up, down):  1.661E-03 1.669E-03

     total cpu time spent up to now is     2215.6 secs

     total energy              =   -2018.52488769 Ry
     estimated scf accuracy    <       0.00000010 Ry

     total magnetization       =     0.00 Bohr mag/cell
     absolute magnetization    =     0.02 Bohr mag/cell

     iteration # 13     ecut=    90.00 Ry     beta= 0.20
     Davidson diagonalization with overlap
     ethr =  8.02E-11,  avg # of iterations =  4.9

     negative rho (up, down):  1.661E-03 1.669E-03

     total cpu time spent up to now is     2247.5 secs

     total energy              =   -2018.52488773 Ry
     estimated scf accuracy    <       0.00000049 Ry

     total magnetization       =     0.00 Bohr mag/cell
     absolute magnetization    =     0.02 Bohr mag/cell

     iteration # 14     ecut=    90.00 Ry     beta= 0.20
     Davidson diagonalization with overlap
     ethr =  8.02E-11,  avg # of iterations =  2.5

     negative rho (up, down):  1.661E-03 1.669E-03

     total cpu time spent up to now is     2272.5 secs

     total energy              =   -2018.52488771 Ry
     estimated scf accuracy    <       0.00000004 Ry

     total magnetization       =     0.00 Bohr mag/cell
     absolute magnetization    =     0.02 Bohr mag/cell

     iteration # 15     ecut=    90.00 Ry     beta= 0.20
     Davidson diagonalization with overlap
     ethr =  3.53E-11,  avg # of iterations =  2.7

     negative rho (up, down):  1.661E-03 1.669E-03

     total cpu time spent up to now is     2299.0 secs

     total energy              =   -2018.52488772 Ry
     estimated scf accuracy    <       0.00000012 Ry

     total magnetization       =     0.00 Bohr mag/cell
     absolute magnetization    =     0.02 Bohr mag/cell

     iteration # 16     ecut=    90.00 Ry     beta= 0.20
     Davidson diagonalization with overlap
     ethr =  3.53E-11,  avg # of iterations =  2.8

     negative rho (up, down):  1.661E-03 1.669E-03

     total cpu time spent up to now is     2324.4 secs

     total energy              =   -2018.52488771 Ry
     estimated scf accuracy    <       0.00000009 Ry

     total magnetization       =     0.00 Bohr mag/cell
     absolute magnetization    =     0.02 Bohr mag/cell

     iteration # 17     ecut=    90.00 Ry     beta= 0.20
     Davidson diagonalization with overlap
     ethr =  3.53E-11,  avg # of iterations =  1.2

     negative rho (up, down):  1.661E-03 1.669E-03

     total cpu time spent up to now is     2346.1 secs

     total energy              =   -2018.52488771 Ry
     estimated scf accuracy    <       0.00000005 Ry

     total magnetization       =     0.00 Bohr mag/cell
     absolute magnetization    =     0.02 Bohr mag/cell

     iteration # 18     ecut=    90.00 Ry     beta= 0.20
     Davidson diagonalization with overlap
     ethr =  3.53E-11,  avg # of iterations =  1.0

     negative rho (up, down):  1.660E-03 1.669E-03

     total cpu time spent up to now is     2367.3 secs

     total energy              =   -2018.52488771 Ry
     estimated scf accuracy    <       0.00000002 Ry

     total magnetization       =     0.00 Bohr mag/cell
     absolute magnetization    =     0.02 Bohr mag/cell

     iteration # 19     ecut=    90.00 Ry     beta= 0.20
     Davidson diagonalization with overlap
     ethr =  2.04E-11,  avg # of iterations =  1.5

     negative rho (up, down):  1.660E-03 1.669E-03

     total cpu time spent up to now is     2389.9 secs

     total energy              =   -2018.52488771 Ry
     estimated scf accuracy    <       0.00000002 Ry

     total magnetization       =     0.00 Bohr mag/cell
     absolute magnetization    =     0.02 Bohr mag/cell

     iteration # 20     ecut=    90.00 Ry     beta= 0.20
     Davidson diagonalization with overlap
     ethr =  1.75E-11,  avg # of iterations =  1.0

     negative rho (up, down):  1.660E-03 1.669E-03

     Magnetic moment per site:
     atom:    1    charge:   14.1932    magn:   -0.0017    constr:    0.0000
     atom:    2    charge:   11.8096    magn:    0.0024    constr:    0.0000
     atom:    3    charge:   14.1930    magn:   -0.0017    constr:    0.0000
     atom:    4    charge:   11.8098    magn:    0.0023    constr:    0.0000
     atom:    5    charge:   14.1930    magn:   -0.0022    constr:    0.0000
     atom:    6    charge:   11.8098    magn:    0.0021    constr:    0.0000
     atom:    7    charge:   14.1929    magn:   -0.0021    constr:    0.0000
     atom:    8    charge:   11.8097    magn:    0.0021    constr:    0.0000

     total cpu time spent up to now is     2411.0 secs

     End of self-consistent calculation

     Number of k-points >= 100: set verbosity='high' to print the bands.

     the Fermi energy is    17.9104 ev

!    total energy              =   -2018.52488771 Ry
     estimated scf accuracy    <          4.2E-09 Ry
     smearing contrib. (-TS)   =      -0.00528691 Ry
     internal energy E=F+TS    =   -2018.51960080 Ry

     total magnetization       =     0.00 Bohr mag/cell
     absolute magnetization    =     0.02 Bohr mag/cell

     convergence has been achieved in  20 iterations

     negative rho (up, down):  1.660E-03 1.669E-03

     Forces acting on atoms (cartesian axes, Ry/au):

     atom    1 type  1   force =     0.00240440    0.00001736    0.00372625
     atom    2 type  2   force =    -0.00027901    0.00198265   -0.00271555
     atom    3 type  1   force =     0.00003316    0.00081988   -0.00199173
     atom    4 type  2   force =    -0.00436874   -0.00217775    0.00228549
     atom    5 type  1   force =    -0.00145641   -0.00013527    0.00089056
     atom    6 type  2   force =     0.00118856   -0.00104436   -0.00332751
     atom    7 type  1   force =    -0.00097722   -0.00069866   -0.00261991
     atom    8 type  2   force =     0.00345527    0.00123615    0.00375240

     Total force =     0.010821     Total SCF correction =     0.000107


     Computing stress (Cartesian axis) and pressure


     negative rho (up, down):  1.660E-03 1.669E-03
          total   stress  (Ry/bohr**3)                   (kbar)     P=        0.21
   0.00000160   0.00000024   0.00000003            0.24        0.03        0.00
   0.00000024   0.00000085  -0.00000004            0.03        0.13       -0.01
   0.00000003  -0.00000004   0.00000192            0.00       -0.01        0.28


     Entering Dynamics;  it =     4   time =  0.00290 pico-seconds

  new lattice vectors (alat unit) :
   1.000025315  -0.000009765  -0.000000739
  -0.000009765   1.000009476   0.000008951
  -0.000000739   0.000008951   1.000029438
  new unit-cell volume =    654.5446 (a.u.)^3
  new positions in cryst coord
Fe      -0.003899186   0.500693893  -0.001743127
Cr       0.500182083  -0.000184479   0.499135265
Fe       0.000848657  -0.000006712   0.503193282
Cr       0.500590539   0.498810765  -0.001989261
Fe       0.503042992  -0.002105276  -0.002225046
Cr      -0.000882081   0.501060725   0.502826860
Fe       0.500007555   0.501418126   0.500774950
Cr       0.000109441   0.000312956   0.000027072
  new positions in cart coord (alat unit)
Fe      -0.003904173   0.500698660  -0.001738694
Cr       0.500194378  -0.000184897   0.499149587
Fe       0.000848306  -0.000002216   0.503208095
Cr       0.500598342   0.498810586  -0.001985225
Fe       0.503055748  -0.002110228  -0.002225502
Cr      -0.000887368   0.501069982   0.502846148
Fe       0.500014947   0.501422477   0.500793810
Cr       0.000109440   0.000312958   0.000027076

     Ekin =     0.01981716 Ry    T =  232.6 K  Etot =    -2018.50506611
     new unit-cell volume =    654.54463 a.u.^3 (    96.99351 Ang^3 )
     density =      7.38500 g/cm^3

CELL_PARAMETERS (angstrom)
   4.594616308  -0.000044864  -0.000003396
  -0.000044864   4.594543536   0.000041127
  -0.000003396   0.000041127   4.594635251

ATOMIC_POSITIONS (angstrom)
Fe           -0.0179377215        2.3004599930       -0.0079884279
Cr            2.2981430699       -0.0008495113        2.2933427793
Fe            0.0038975432       -0.0000101818        2.3119895902
Cr            2.2999990805        2.2917852362       -0.0091211160
Fe            2.3112896350       -0.0096954414       -0.0102250685
Cr           -0.0040770132        2.3021660325        2.3103266265
Fe            2.2973186721        2.3037855717        2.3008971606
Cr            0.0005028233        0.0014378874        0.0001244000



     Writing output data file ./pwscf.save/
     NEW-OLD atomic charge density approx. for the potential

     Check: negative core charge=   -0.000008

     negative rho (up, down):  1.666E-03 1.676E-03
     extrapolated charge  120.00316, renormalised to  120.00000
     Generating pointlists ...

     total cpu time spent up to now is     2431.8 secs

     Self-consistent Calculation

     iteration #  1     ecut=    90.00 Ry     beta= 0.20
     Davidson diagonalization with overlap
     ethr =  1.00E-06,  avg # of iterations =  6.6

     negative rho (up, down):  1.666E-03 1.676E-03

     total cpu time spent up to now is     2491.0 secs

     total energy              =   -2018.52475530 Ry
     estimated scf accuracy    <       0.00015719 Ry

     total magnetization       =     0.00 Bohr mag/cell
     absolute magnetization    =     0.02 Bohr mag/cell

     iteration #  2     ecut=    90.00 Ry     beta= 0.20
     Davidson diagonalization with overlap
     ethr =  1.31E-07,  avg # of iterations =  4.8

     negative rho (up, down):  1.667E-03 1.677E-03

     total cpu time spent up to now is     2525.9 secs

     total energy              =   -2018.52477325 Ry
     estimated scf accuracy    <       0.00026079 Ry

     total magnetization       =     0.00 Bohr mag/cell
     absolute magnetization    =     0.02 Bohr mag/cell

     iteration #  3     ecut=    90.00 Ry     beta= 0.20
     Davidson diagonalization with overlap
     ethr =  1.31E-07,  avg # of iterations =  2.5

     negative rho (up, down):  1.666E-03 1.676E-03

     total cpu time spent up to now is     2550.6 secs

     total energy              =   -2018.52477951 Ry
     estimated scf accuracy    <       0.00012550 Ry

     total magnetization       =     0.00 Bohr mag/cell
     absolute magnetization    =     0.02 Bohr mag/cell

     iteration #  4     ecut=    90.00 Ry     beta= 0.20
     Davidson diagonalization with overlap
     ethr =  1.05E-07,  avg # of iterations =  1.0

     negative rho (up, down):  1.666E-03 1.676E-03

     total cpu time spent up to now is     2571.6 secs

     total energy              =   -2018.52478125 Ry
     estimated scf accuracy    <       0.00005137 Ry

     total magnetization       =     0.00 Bohr mag/cell
     absolute magnetization    =     0.02 Bohr mag/cell

     iteration #  5     ecut=    90.00 Ry     beta= 0.20
     Davidson diagonalization with overlap
     ethr =  4.28E-08,  avg # of iterations =  1.2

     negative rho (up, down):  1.666E-03 1.676E-03

     total cpu time spent up to now is     2593.2 secs

     total energy              =   -2018.52477605 Ry
     estimated scf accuracy    <       0.00001073 Ry

     total magnetization       =     0.00 Bohr mag/cell
     absolute magnetization    =     0.02 Bohr mag/cell

     iteration #  6     ecut=    90.00 Ry     beta= 0.20
     Davidson diagonalization with overlap
     ethr =  8.95E-09,  avg # of iterations =  3.6

     negative rho (up, down):  1.666E-03 1.676E-03

     total cpu time spent up to now is     2619.9 secs

     total energy              =   -2018.52477504 Ry
     estimated scf accuracy    <       0.00000370 Ry

     total magnetization       =     0.00 Bohr mag/cell
     absolute magnetization    =     0.02 Bohr mag/cell

     iteration #  7     ecut=    90.00 Ry     beta= 0.20
     Davidson diagonalization with overlap
     ethr =  3.08E-09,  avg # of iterations =  4.1

     negative rho (up, down):  1.666E-03 1.676E-03

     total cpu time spent up to now is     2647.9 secs

     total energy              =   -2018.52477366 Ry
     estimated scf accuracy    <       0.00000827 Ry

     total magnetization       =     0.00 Bohr mag/cell
     absolute magnetization    =     0.02 Bohr mag/cell

     iteration #  8     ecut=    90.00 Ry     beta= 0.20
     Davidson diagonalization with overlap
     ethr =  3.08E-09,  avg # of iterations =  1.4

     negative rho (up, down):  1.666E-03 1.676E-03

     total cpu time spent up to now is     2670.1 secs

     total energy              =   -2018.52477376 Ry
     estimated scf accuracy    <       0.00000153 Ry

     total magnetization       =     0.00 Bohr mag/cell
     absolute magnetization    =     0.02 Bohr mag/cell

     iteration #  9     ecut=    90.00 Ry     beta= 0.20
     Davidson diagonalization with overlap
     ethr =  1.27E-09,  avg # of iterations =  3.0

     negative rho (up, down):  1.666E-03 1.676E-03

     total cpu time spent up to now is     2696.1 secs

     total energy              =   -2018.52477383 Ry
     estimated scf accuracy    <       0.00000333 Ry

     total magnetization       =     0.00 Bohr mag/cell
     absolute magnetization    =     0.02 Bohr mag/cell

     iteration # 10     ecut=    90.00 Ry     beta= 0.20
     Davidson diagonalization with overlap
     ethr =  1.27E-09,  avg # of iterations =  1.1

     negative rho (up, down):  1.666E-03 1.676E-03

     total cpu time spent up to now is     2717.4 secs

     total energy              =   -2018.52477408 Ry
     estimated scf accuracy    <       0.00000132 Ry

     total magnetization       =     0.00 Bohr mag/cell
     absolute magnetization    =     0.02 Bohr mag/cell

     iteration # 11     ecut=    90.00 Ry     beta= 0.20
     Davidson diagonalization with overlap
     ethr =  1.10E-09,  avg # of iterations =  1.7

     negative rho (up, down):  1.666E-03 1.676E-03

     total cpu time spent up to now is     2740.6 secs

     total energy              =   -2018.52477392 Ry
     estimated scf accuracy    <       0.00000150 Ry

     total magnetization       =     0.00 Bohr mag/cell
     absolute magnetization    =     0.02 Bohr mag/cell

     iteration # 12     ecut=    90.00 Ry     beta= 0.20
     Davidson diagonalization with overlap
     ethr =  1.10E-09,  avg # of iterations =  1.0

     negative rho (up, down):  1.666E-03 1.676E-03

     total cpu time spent up to now is     2761.7 secs

     total energy              =   -2018.52477385 Ry
     estimated scf accuracy    <       0.00000010 Ry

     total magnetization       =     0.00 Bohr mag/cell
     absolute magnetization    =     0.02 Bohr mag/cell

     iteration # 13     ecut=    90.00 Ry     beta= 0.20
     Davidson diagonalization with overlap
     ethr =  8.53E-11,  avg # of iterations =  5.0

     negative rho (up, down):  1.666E-03 1.676E-03

     total cpu time spent up to now is     2791.0 secs

     total energy              =   -2018.52477386 Ry
     estimated scf accuracy    <       0.00000023 Ry

     total magnetization       =     0.00 Bohr mag/cell
     absolute magnetization    =     0.02 Bohr mag/cell

     iteration # 14     ecut=    90.00 Ry     beta= 0.20
     Davidson diagonalization with overlap
     ethr =  8.53E-11,  avg # of iterations =  1.4

     negative rho (up, down):  1.666E-03 1.676E-03

     total cpu time spent up to now is     2813.2 secs

     total energy              =   -2018.52477379 Ry
     estimated scf accuracy    <       0.00000008 Ry

     total magnetization       =     0.00 Bohr mag/cell
     absolute magnetization    =     0.02 Bohr mag/cell

     iteration # 15     ecut=    90.00 Ry     beta= 0.20
     Davidson diagonalization with overlap
     ethr =  7.07E-11,  avg # of iterations =  2.4

     negative rho (up, down):  1.666E-03 1.676E-03

     total cpu time spent up to now is     2837.5 secs

     total energy              =   -2018.52477379 Ry
     estimated scf accuracy    <       0.00000019 Ry

     total magnetization       =     0.00 Bohr mag/cell
     absolute magnetization    =     0.02 Bohr mag/cell

     iteration # 16     ecut=    90.00 Ry     beta= 0.20
     Davidson diagonalization with overlap
     ethr =  7.07E-11,  avg # of iterations =  2.1

     negative rho (up, down):  1.665E-03 1.677E-03

     total cpu time spent up to now is     2861.8 secs

     total energy              =   -2018.52477375 Ry
     estimated scf accuracy    <       0.00000024 Ry

     total magnetization       =     0.00 Bohr mag/cell
     absolute magnetization    =     0.02 Bohr mag/cell

     iteration # 17     ecut=    90.00 Ry     beta= 0.20
     Davidson diagonalization with overlap
     ethr =  7.07E-11,  avg # of iterations =  1.6

     negative rho (up, down):  1.665E-03 1.676E-03

     total cpu time spent up to now is     2884.6 secs

     total energy              =   -2018.52477378 Ry
     estimated scf accuracy    <       0.00000008 Ry

     total magnetization       =     0.00 Bohr mag/cell
     absolute magnetization    =     0.02 Bohr mag/cell

[...]

     total cpu time spent up to now is   115554.3 secs

     total energy              =   -2018.67569495 Ry
     estimated scf accuracy    <       0.00000001 Ry

     total magnetization       =     0.00 Bohr mag/cell
     absolute magnetization    =     0.05 Bohr mag/cell

     iteration # 39     ecut=    90.00 Ry     beta= 0.20
     Davidson diagonalization with overlap
     ethr =  8.58E-12,  avg # of iterations =  1.1

     negative rho (up, down):  1.814E-03 1.830E-03

     total cpu time spent up to now is   115575.6 secs

     total energy              =   -2018.67569496 Ry
     estimated scf accuracy    <       0.00000003 Ry

     total magnetization       =     0.00 Bohr mag/cell
     absolute magnetization    =     0.05 Bohr mag/cell

     iteration # 40     ecut=    90.00 Ry     beta= 0.20
     Davidson diagonalization with overlap
     ethr =  8.58E-12,  avg # of iterations =  1.8

     negative rho (up, down):  1.814E-03 1.830E-03

     total cpu time spent up to now is   115599.6 secs

     total energy              =   -2018.67569497 Ry
     estimated scf accuracy    <       0.00000003 Ry

     total magnetization       =     0.00 Bohr mag/cell
     absolute magnetization    =     0.05 Bohr mag/cell

     iteration # 41     ecut=    90.00 Ry     beta= 0.20
     Davidson diagonalization with overlap
     ethr =  8.58E-12,  avg # of iterations =  2.9

     negative rho (up, down):  1.814E-03 1.830E-03

     total cpu time spent up to now is   115626.0 secs

     total energy              =   -2018.67569496 Ry
     estimated scf accuracy    <       0.00000001 Ry

     total magnetization       =     0.00 Bohr mag/cell
     absolute magnetization    =     0.05 Bohr mag/cell

     iteration # 42     ecut=    90.00 Ry     beta= 0.20
     Davidson diagonalization with overlap
     ethr =  8.58E-12,  avg # of iterations =  1.5

     negative rho (up, down):  1.814E-03 1.830E-03

     total cpu time spent up to now is   115648.4 secs

     total energy              =   -2018.67569496 Ry
     estimated scf accuracy    <       0.00000002 Ry

     total magnetization       =     0.00 Bohr mag/cell
     absolute magnetization    =     0.05 Bohr mag/cell

     iteration # 43     ecut=    90.00 Ry     beta= 0.20
     Davidson diagonalization with overlap
     ethr =  8.58E-12,  avg # of iterations =  1.0

     negative rho (up, down):  1.814E-03 1.830E-03

     total cpu time spent up to now is   115669.5 secs

     total energy              =   -2018.67569497 Ry
     estimated scf accuracy    <       0.00000001 Ry

     total magnetization       =     0.00 Bohr mag/cell
     absolute magnetization    =     0.05 Bohr mag/cell

     iteration # 44     ecut=    90.00 Ry     beta= 0.20
     Davidson diagonalization with overlap
     ethr =  8.58E-12,  avg # of iterations =  1.1

     negative rho (up, down):  1.814E-03 1.830E-03

     total cpu time spent up to now is   115690.7 secs

     total energy              =   -2018.67569497 Ry
     estimated scf accuracy    <       0.00000001 Ry

     total magnetization       =     0.00 Bohr mag/cell
     absolute magnetization    =     0.05 Bohr mag/cell

     iteration # 45     ecut=    90.00 Ry     beta= 0.20
     Davidson diagonalization with overlap
     ethr =  8.58E-12,  avg # of iterations =  1.0

     negative rho (up, down):  1.813E-03 1.831E-03

     total cpu time spent up to now is   115711.8 secs

     total energy              =   -2018.67569498 Ry
     estimated scf accuracy    <       0.00000001 Ry

     total magnetization       =     0.00 Bohr mag/cell
     absolute magnetization    =     0.05 Bohr mag/cell

     iteration # 46     ecut=    90.00 Ry     beta= 0.20
     Davidson diagonalization with overlap
     ethr =  8.58E-12,  avg # of iterations =  5.3

     negative rho (up, down):  1.813E-03 1.831E-03

     total cpu time spent up to now is   115750.1 secs

     total energy              =   -2018.67569498 Ry
     estimated scf accuracy    <       0.00000002 Ry

     total magnetization       =     0.00 Bohr mag/cell
     absolute magnetization    =     0.05 Bohr mag/cell

     iteration # 47     ecut=    90.00 Ry     beta= 0.20
     Davidson diagonalization with overlap
     ethr =  8.58E-12,  avg # of iterations =  2.2

     negative rho (up, down):  1.813E-03 1.831E-03

     total cpu time spent up to now is   115775.3 secs

     total energy              =   -2018.67569499 Ry
     estimated scf accuracy    <       0.00000002 Ry

     total magnetization       =     0.00 Bohr mag/cell
     absolute magnetization    =     0.05 Bohr mag/cell

     iteration # 48     ecut=    90.00 Ry     beta= 0.20
     Davidson diagonalization with overlap
     ethr =  8.58E-12,  avg # of iterations =  4.6

     negative rho (up, down):  1.813E-03 1.831E-03

     total cpu time spent up to now is   115808.1 secs

     total energy              =   -2018.67569501 Ry
     estimated scf accuracy    <       0.00000003 Ry

     total magnetization       =     0.00 Bohr mag/cell
     absolute magnetization    =     0.05 Bohr mag/cell

     iteration # 49     ecut=    90.00 Ry     beta= 0.20
     Davidson diagonalization with overlap
     ethr =  8.58E-12,  avg # of iterations =  1.1

     negative rho (up, down):  1.812E-03 1.832E-03

     total cpu time spent up to now is   115829.4 secs

     total energy              =   -2018.67569502 Ry
     estimated scf accuracy    <       0.00000002 Ry

     total magnetization       =     0.00 Bohr mag/cell
     absolute magnetization    =     0.05 Bohr mag/cell

     iteration # 50     ecut=    90.00 Ry     beta= 0.20
     Davidson diagonalization with overlap
     ethr =  8.58E-12,  avg # of iterations =  4.1

     negative rho (up, down):  1.812E-03 1.832E-03

     total cpu time spent up to now is   115859.9 secs

     total energy              =   -2018.67569503 Ry
     estimated scf accuracy    <       0.00000002 Ry

     total magnetization       =     0.00 Bohr mag/cell
     absolute magnetization    =     0.05 Bohr mag/cell

     iteration # 51     ecut=    90.00 Ry     beta= 0.20
     Davidson diagonalization with overlap
     ethr =  8.58E-12,  avg # of iterations =  1.0

     negative rho (up, down):  1.809E-03 1.835E-03

     total cpu time spent up to now is   115880.9 secs

     total energy              =   -2018.67569451 Ry
     estimated scf accuracy    <       0.00000002 Ry

     total magnetization       =     0.00 Bohr mag/cell
     absolute magnetization    =     0.05 Bohr mag/cell

     iteration # 52     ecut=    90.00 Ry     beta= 0.20
     Davidson diagonalization with overlap
     ethr =  8.58E-12,  avg # of iterations =  9.9

     negative rho (up, down):  1.812E-03 1.832E-03

     total cpu time spent up to now is   115943.0 secs

     total energy              =   -2018.67569442 Ry
     estimated scf accuracy    <       0.00000010 Ry

     total magnetization       =     0.00 Bohr mag/cell
     absolute magnetization    =     0.07 Bohr mag/cell

     iteration # 53     ecut=    90.00 Ry     beta= 0.20
     Davidson diagonalization with overlap
     ethr =  8.58E-12,  avg # of iterations =  9.5

     negative rho (up, down):  1.812E-03 1.832E-03

     total cpu time spent up to now is   116003.5 secs

     total energy              =   -2018.67569503 Ry
     estimated scf accuracy    <       0.00000005 Ry

     total magnetization       =     0.00 Bohr mag/cell
     absolute magnetization    =     0.05 Bohr mag/cell

     iteration # 54     ecut=    90.00 Ry     beta= 0.20
     Davidson diagonalization with overlap
     ethr =  8.58E-12,  avg # of iterations =  4.0

     negative rho (up, down):  1.818E-03 1.826E-03

     total cpu time spent up to now is   116032.2 secs

     total energy              =   -2018.67569304 Ry
     estimated scf accuracy    <       0.00000002 Ry

     total magnetization       =     0.00 Bohr mag/cell
     absolute magnetization    =     0.05 Bohr mag/cell

     iteration # 55     ecut=    90.00 Ry     beta= 0.20
     Davidson diagonalization with overlap
     ethr =  8.58E-12,  avg # of iterations = 11.8

     negative rho (up, down):  1.825E-03 1.819E-03

     total cpu time spent up to now is   116104.2 secs

     total energy              =   -2018.67569184 Ry
     estimated scf accuracy    <       0.00000006 Ry

     total magnetization       =    -0.00 Bohr mag/cell
     absolute magnetization    =     0.03 Bohr mag/cell

     iteration # 56     ecut=    90.00 Ry     beta= 0.20
     Davidson diagonalization with overlap
     ethr =  8.58E-12,  avg # of iterations = 11.8

     negative rho (up, down):  1.819E-03 1.825E-03

     total cpu time spent up to now is   116180.6 secs

     total energy              =   -2018.67569255 Ry
     estimated scf accuracy    <       0.00000004 Ry

     total magnetization       =    -0.01 Bohr mag/cell
     absolute magnetization    =     0.02 Bohr mag/cell

     iteration # 57     ecut=    90.00 Ry     beta= 0.20
     Davidson diagonalization with overlap
     ethr =  8.58E-12,  avg # of iterations = 11.8

     negative rho (up, down):  1.822E-03 1.822E-03

     total cpu time spent up to now is   116254.1 secs

     total energy              =   -2018.67569412 Ry
     estimated scf accuracy    <       0.00000008 Ry

     total magnetization       =    -0.00 Bohr mag/cell
     absolute magnetization    =     0.03 Bohr mag/cell

     iteration # 58     ecut=    90.00 Ry     beta= 0.20
     Davidson diagonalization with overlap
     ethr =  8.58E-12,  avg # of iterations =  9.7

     negative rho (up, down):  1.821E-03 1.822E-03

     total cpu time spent up to now is   116315.0 secs

     total energy              =   -2018.67569474 Ry
     estimated scf accuracy    <       0.00000005 Ry

     total magnetization       =    -0.01 Bohr mag/cell
     absolute magnetization    =     0.02 Bohr mag/cell

     iteration # 59     ecut=    90.00 Ry     beta= 0.20
     Davidson diagonalization with overlap
     ethr =  8.58E-12,  avg # of iterations =  4.5

     negative rho (up, down):  1.821E-03 1.822E-03

     total cpu time spent up to now is   116347.2 secs

     total energy              =   -2018.67569475 Ry
     estimated scf accuracy    <       0.00000005 Ry

     total magnetization       =    -0.00 Bohr mag/cell
     absolute magnetization    =     0.02 Bohr mag/cell

     iteration # 60     ecut=    90.00 Ry     beta= 0.20
     Davidson diagonalization with overlap
     ethr =  8.58E-12,  avg # of iterations =  1.1

     negative rho (up, down):  1.821E-03 1.822E-03

     Magnetic moment per site:
     atom:    1    charge:   13.8996    magn:    0.0024    constr:    0.0000
     atom:    2    charge:   11.5452    magn:    0.0028    constr:    0.0000
     atom:    3    charge:   13.9035    magn:    0.0019    constr:    0.0000
     atom:    4    charge:   11.5376    magn:    0.0004    constr:    0.0000
     atom:    5    charge:   13.8798    magn:   -0.0079    constr:    0.0000
     atom:    6    charge:   11.5547    magn:   -0.0009    constr:    0.0000
     atom:    7    charge:   13.9052    magn:   -0.0021    constr:    0.0000
     atom:    8    charge:   11.5461    magn:   -0.0014    constr:    0.0000

     total cpu time spent up to now is   116368.6 secs

     End of self-consistent calculation

     Number of k-points >= 100: set verbosity='high' to print the bands.

     the Fermi energy is    18.3946 ev

!    total energy              =   -2018.67569476 Ry
     estimated scf accuracy    <          2.1E-09 Ry
     smearing contrib. (-TS)   =      -0.00904037 Ry
     internal energy E=F+TS    =   -2018.66665439 Ry

     total magnetization       =    -0.00 Bohr mag/cell
     absolute magnetization    =     0.02 Bohr mag/cell

     convergence has been achieved in  60 iterations

     negative rho (up, down):  1.821E-03 1.822E-03

     Forces acting on atoms (cartesian axes, Ry/au):

     atom    1 type  1   force =    -0.02339742    0.00465425   -0.01664712
     atom    2 type  2   force =     0.01724563    0.03976376    0.00624708
     atom    3 type  1   force =     0.00432933   -0.03087874    0.04048606
     atom    4 type  2   force =    -0.03110341    0.00135206   -0.01531813
     atom    5 type  1   force =     0.00258222   -0.02093541   -0.03272292
     atom    6 type  2   force =     0.01632550   -0.02100124   -0.00958861
     atom    7 type  1   force =     0.02459333    0.04101975   -0.00392155
     atom    8 type  2   force =    -0.01057518   -0.01397443    0.03146519

     Total force =     0.111778     Total SCF correction =     0.000034


     Computing stress (Cartesian axis) and pressure


     negative rho (up, down):  1.821E-03 1.822E-03
          total   stress  (Ry/bohr**3)                   (kbar)     P=       -1.74
  -0.00009742   0.00021184   0.00014503          -14.33       31.16       21.34
   0.00021184   0.00008050  -0.00005447           31.16       11.84       -8.01
   0.00014503  -0.00005447  -0.00001860           21.34       -8.01       -2.74


     Entering Dynamics;  it =   102   time =  0.09772 pico-seconds

  new lattice vectors (alat unit) :
   0.993979369   0.028017686   0.019638857
   0.028017686   0.989420488  -0.006321905
   0.019638857  -0.006321905   0.991988323
  new unit-cell volume =    637.7325 (a.u.)^3
  new positions in cryst coord
Fe      -0.071697847   0.532619402   0.008905240
Cr       0.506879172   0.051660589   0.427723496
Fe       0.006338718  -0.004112370   0.567918300
Cr       0.425908827   0.425626540  -0.014205287
Fe       0.561009430  -0.070051092  -0.061022224
Cr       0.012245906   0.487508538   0.501727476
Fe       0.501267687   0.545927441   0.486409424
Cr       0.058276247   0.030496481   0.082379930
  new positions in cart coord (alat unit)
Fe      -0.056168529   0.524919442   0.004058661
Cr       0.513674850   0.062611599   0.433924647
Fe       0.017338602  -0.007481593   0.563518805
Cr       0.434990682   0.433146403  -0.008417887
Fe       0.554470723  -0.053206023  -0.049072893
Cr       0.035684393   0.479522164   0.494866310
Fe       0.523097887   0.551121121   0.488905492
Cr       0.060397676   0.031285811   0.082671611

     Ekin =     0.03492773 Ry    T =  379.0 K  Etot =    -2018.64076269
     new unit-cell volume =    637.73251 a.u.^3 (    94.50221 Ang^3 )
     density =      7.57969 g/cm^3

CELL_PARAMETERS (angstrom)
   4.566838211   0.128727257   0.090230728
   0.128727257   4.545892431  -0.029045994
   0.090230728  -0.029045994   4.557690348

ATOMIC_POSITIONS (angstrom)
Fe           -0.2580663074        2.4117423774        0.0186475163
Cr            2.3600791004        0.2876689933        1.9936667912
Fe            0.0796622066       -0.0343741771        2.5890871509
Cr            1.9985646902        1.9900911474       -0.0386759804
Fe            2.5475157357       -0.2444550705       -0.2254654086
Cr            0.1639519449        2.2031645823        2.2736632622
Fe            2.4033732437        2.5321259908        2.2462762808
Cr            0.2774971204        0.1437426566        0.3798347176



     Maximum number of iterations reached, stopping

     init_run     :     11.65s CPU     12.35s WALL (       1 calls)
     electrons    : 110867.76s CPU 114242.39s WALL (     102 calls)
     update_pot   :    210.24s CPU    214.52s WALL (     101 calls)
     forces       :    562.02s CPU    586.61s WALL (     102 calls)
     stress       :   1121.99s CPU   1152.24s WALL (     102 calls)

     Called by init_run:
     wfcinit      :      9.12s CPU      9.37s WALL (       1 calls)
     potinit      :      0.76s CPU      0.84s WALL (       1 calls)
     hinit0       :      1.21s CPU      1.35s WALL (       1 calls)

     Called by electrons:
     c_bands      :  93692.54s CPU  95188.91s WALL (    4494 calls)
     sum_band     :  13926.10s CPU  15037.18s WALL (    4494 calls)
     v_of_rho     :    586.74s CPU    655.87s WALL (    4596 calls)
     newd         :   1758.35s CPU   2343.64s WALL (    4596 calls)
     PAW_pot      :    860.11s CPU    961.60s WALL (    4697 calls)
     mix_rho      :     62.13s CPU     78.00s WALL (    4494 calls)

     Called by c_bands:
     init_us_2    :   1252.69s CPU   1283.90s WALL ( 1171044 calls)
     cegterg      :  90341.59s CPU  91735.72s WALL (  566244 calls)

     Called by *egterg:
     cdiaghg      :  13615.71s CPU  13655.67s WALL ( 1855036 calls)
     h_psi        :  41266.30s CPU  42152.21s WALL ( 1867888 calls)
     s_psi        :   6654.50s CPU   6692.95s WALL ( 1867888 calls)
     g_psi        :    163.79s CPU    165.49s WALL ( 1301518 calls)

     Called by h_psi:
     h_psi:calbec :   9446.70s CPU   9730.82s WALL ( 1867888 calls)
     vloc_psi     :  23882.44s CPU  24426.28s WALL ( 1867888 calls)
     add_vuspsi   :   7271.88s CPU   7322.98s WALL ( 1867888 calls)

     General routines
     calbec       :  13354.08s CPU  13765.85s WALL ( 2511118 calls)
     fft          :    210.54s CPU    290.15s WALL (  118877 calls)
     ffts         :      7.51s CPU      7.68s WALL (   18180 calls)
     fftw         :  26901.13s CPU  27513.70s WALL (******** calls)
     interpolate  :     23.45s CPU     33.06s WALL (    9192 calls)

     Parallel routines
     fft_scatt_xy :   2821.34s CPU   2876.04s WALL (******** calls)
     fft_scatt_yz :  10818.98s CPU  11146.41s WALL (******** calls)

     PWSCF        :   1d 7h22m CPU   1d 8h19m WALL


   This run was terminated on:  19:25:19  10Feb2022            

=------------------------------------------------------------------------------=
   JOB DONE.
=------------------------------------------------------------------------------=
Note: The following floating-point exceptions are signalling: IEEE_INVALID_FLAG IEEE_UNDERFLOW_FLAG IEEE_DENORMAL
Note: The following floating-point exceptions are signalling: IEEE_INVALID_FLAG IEEE_UNDERFLOW_FLAG IEEE_DENORMAL
Note: The following floating-point exceptions are signalling: IEEE_UNDERFLOW_FLAG IEEE_DENORMAL
Note: The following floating-point exceptions are signalling: IEEE_UNDERFLOW_FLAG IEEE_DENORMAL
Note: The following floating-point exceptions are signalling: IEEE_UNDERFLOW_FLAG IEEE_DENORMAL
Note: The following floating-point exceptions are signalling: IEEE_UNDERFLOW_FLAG IEEE_DENORMAL
Note: The following floating-point exceptions are signalling: IEEE_UNDERFLOW_FLAG IEEE_DENORMAL
Note: The following floating-point exceptions are signalling: IEEE_UNDERFLOW_FLAG IEEE_DENORMAL
Note: The following floating-point exceptions are signalling: IEEE_INVALID_FLAG IEEE_UNDERFLOW_FLAG IEEE_DENORMAL
Note: The following floating-point exceptions are signalling: IEEE_UNDERFLOW_FLAG IEEE_DENORMAL
Note: The following floating-point exceptions are signalling: IEEE_UNDERFLOW_FLAG IEEE_DENORMAL
Note: The following floating-point exceptions are signalling: IEEE_UNDERFLOW_FLAG IEEE_DENORMAL
Note: The following floating-point exceptions are signalling: IEEE_UNDERFLOW_FLAG IEEE_DENORMAL
Note: The following floating-point exceptions are signalling: IEEE_UNDERFLOW_FLAG IEEE_DENORMAL
Note: The following floating-point exceptions are signalling: IEEE_UNDERFLOW_FLAG IEEE_DENORMAL
Note: The following floating-point exceptions are signalling: IEEE_UNDERFLOW_FLAG IEEE_DENORMAL
Note: The following floating-point exceptions are signalling: IEEE_UNDERFLOW_FLAG IEEE_DENORMAL
Note: The following floating-point exceptions are signalling: IEEE_UNDERFLOW_FLAG IEEE_DENORMAL
Note: The following floating-point exceptions are signalling: IEEE_UNDERFLOW_FLAG IEEE_DENORMAL
Note: The following floating-point exceptions are signalling: IEEE_UNDERFLOW_FLAG IEEE_DENORMAL
Note: The following floating-point exceptions are signalling: IEEE_UNDERFLOW_FLAG IEEE_DENORMAL
Note: The following floating-point exceptions are signalling: IEEE_UNDERFLOW_FLAG IEEE_DENORMAL
Note: The following floating-point exceptions are signalling: IEEE_UNDERFLOW_FLAG IEEE_DENORMAL
Note: The following floating-point exceptions are signalling: IEEE_UNDERFLOW_FLAG IEEE_DENORMAL
