
     Program PWSCF v.6.7MaX starts on 27May2022 at 23:27: 9 

     This program is part of the open-source Quantum ESPRESSO suite
     for quantum simulation of materials; please cite
         "P. Giannozzi et al., J. Phys.:Condens. Matter 21 395502 (2009);
         "P. Giannozzi et al., J. Phys.:Condens. Matter 29 465901 (2017);
          URL http://www.quantum-espresso.org", 
     in publications or presentations arising from this work. More details at
     http://www.quantum-espresso.org/quote

     Parallel version (MPI), running on    24 processors

     MPI processes distributed on     1 nodes
     R & G space division:  proc/nbgrp/npool/nimage =      24
     Reading input from Fe_mp-1194030.in

     Current dimensions of program PWSCF are:
     Max number of different atomic species (ntypx) = 10
     Max number of k-points (npk) =  40000
     Max angular momentum in pseudopotentials (lmaxx) =  3
     file Fe.pbe-spn-kjpaw_psl.0.2.1.UPF: wavefunction(s)  3D renormalized

     Subspace diagonalization in iterative solution of the eigenvalue problem:
     a serial algorithm will be used


     Parallelization info
     --------------------
     sticks:   dense  smooth     PW     G-vecs:    dense   smooth      PW
     Min         950     316     84                57262    11016    1516
     Max         952     317     85                57263    11019    1519
     Sum       22821    7597   2025              1374303   264401   36395



     bravais-lattice index     =            0
     lattice parameter (alat)  =      16.2855  a.u.
     unit-cell volume          =    2292.6649 (a.u.)^3
     number of atoms/cell      =           28
     number of atomic types    =            1
     number of electrons       =       448.00
     number of Kohn-Sham states=          269
     kinetic-energy cutoff     =      90.0000  Ry
     charge density cutoff     =    1080.0000  Ry
     scf convergence threshold =      1.0E-08
     mixing beta               =       0.2000
     number of iterations used =            8  plain     mixing
     energy convergence thresh.=      1.0E-05
     force convergence thresh. =      1.0E-04
     press convergence thresh. =      1.0E-01
     Exchange-correlation= SLA  PW   PBX  PBC
                           (   1   4   3   4   0   0   0)
     nstep                     =         1000


     celldm(1)=  16.285473  celldm(2)=   0.000000  celldm(3)=   0.000000
     celldm(4)=   0.000000  celldm(5)=   0.000000  celldm(6)=   0.000000

     crystal axes: (cart. coord. in units of alat)
               a(1) = (   1.000000   0.000000   0.000000 )  
               a(2) = (   0.000000   1.000000   0.000000 )  
               a(3) = (   0.000000   0.000000   0.530810 )  

     reciprocal axes: (cart. coord. in units 2 pi/alat)
               b(1) = (  1.000000  0.000000  0.000000 )  
               b(2) = (  0.000000  1.000000  0.000000 )  
               b(3) = (  0.000000  0.000000  1.883912 )  


     PseudoPot. # 1 for Fe read from file:
     /opt/QEpot/SSSP_precision_pseudos/Fe.pbe-spn-kjpaw_psl.0.2.1.UPF
     MD5 check sum: e86618425769142926afa95317d90200
     Pseudo is Projector augmented-wave + core cor, Zval = 16.0
     Generated using "atomic" code by A. Dal Corso  v.5.0.99 svn rev. 10869
     Shape of augmentation charge: PSQ
     Using radial grid of 1191 points,  6 beta functions with: 
                l(1) =   0
                l(2) =   0
                l(3) =   1
                l(4) =   1
                l(5) =   2
                l(6) =   2
     Q(r) pseudized with 0 coefficients 


     atomic species   valence    mass     pseudopotential
        Fe            16.00    55.84500     Fe( 1.00)

     Starting magnetic structure 
     atomic species   magnetization
        Fe           0.200

     No symmetry found



   Cartesian axes

     site n.     atom                  positions (alat units)
         1           Fe  tau(   1) = (   0.2153880   0.2153880   0.1350297  )
         2           Fe  tau(   2) = (   0.7846120   0.7846120   0.1350297  )
         3           Fe  tau(   3) = (   0.7153880   0.2846120   0.4004349  )
         4           Fe  tau(   4) = (   0.2846120   0.7153880   0.4004349  )
         5           Fe  tau(   5) = (   0.7846120   0.7846120   0.3957808  )
         6           Fe  tau(   6) = (   0.2153880   0.2153880   0.3957808  )
         7           Fe  tau(   7) = (   0.2846120   0.7153880   0.1303755  )
         8           Fe  tau(   8) = (   0.7153880   0.2846120   0.1303755  )
         9           Fe  tau(   9) = (   0.9685780   0.2292640   0.0000000  )
        10           Fe  tau(  10) = (   0.0314220   0.7707360   0.0000000  )
        11           Fe  tau(  11) = (   0.5314220   0.7292640   0.2654052  )
        12           Fe  tau(  12) = (   0.4685780   0.2707360   0.2654052  )
        13           Fe  tau(  13) = (   0.2292640   0.9685780   0.0000000  )
        14           Fe  tau(  14) = (   0.7707360   0.0314220   0.0000000  )
        15           Fe  tau(  15) = (   0.7292640   0.5314220   0.2654052  )
        16           Fe  tau(  16) = (   0.2707360   0.4685780   0.2654052  )
        17           Fe  tau(  17) = (   0.8667570   0.5190930   0.0000000  )
        18           Fe  tau(  18) = (   0.1332430   0.4809070   0.0000000  )
        19           Fe  tau(  19) = (   0.6332430   0.0190930   0.2654052  )
        20           Fe  tau(  20) = (   0.3667570   0.9809070   0.2654052  )
        21           Fe  tau(  21) = (   0.5190930   0.8667570   0.0000000  )
        22           Fe  tau(  22) = (   0.4809070   0.1332430   0.0000000  )
        23           Fe  tau(  23) = (   0.0190930   0.6332430   0.2654052  )
        24           Fe  tau(  24) = (   0.9809070   0.3667570   0.2654052  )
        25           Fe  tau(  25) = (   0.5950920   0.5950920   0.0000000  )
        26           Fe  tau(  26) = (   0.4049080   0.4049080   0.0000000  )
        27           Fe  tau(  27) = (   0.0950920   0.9049080   0.2654052  )
        28           Fe  tau(  28) = (   0.9049080   0.0950920   0.2654052  )

     number of k points=    14  Gaussian smearing, width (Ry)=  0.0100
                       cart. coord. in units 2pi/alat
        k(    1) = (   0.0000000   0.0000000   0.0000000), wk =   0.0370370
        k(    2) = (   0.0000000   0.0000000   0.6279705), wk =   0.0740741
        k(    3) = (   0.0000000   0.3333333   0.0000000), wk =   0.0740741
        k(    4) = (   0.0000000   0.3333333   0.6279705), wk =   0.0740741
        k(    5) = (   0.0000000   0.3333333  -0.6279705), wk =   0.0740741
        k(    6) = (   0.3333333   0.0000000   0.0000000), wk =   0.0740741
        k(    7) = (   0.3333333   0.0000000   0.6279705), wk =   0.0740741
        k(    8) = (   0.3333333   0.0000000  -0.6279705), wk =   0.0740741
        k(    9) = (   0.3333333   0.3333333   0.0000000), wk =   0.0740741
        k(   10) = (   0.3333333   0.3333333   0.6279705), wk =   0.0740741
        k(   11) = (   0.3333333   0.3333333  -0.6279705), wk =   0.0740741
        k(   12) = (   0.3333333  -0.3333333   0.0000000), wk =   0.0740741
        k(   13) = (   0.3333333  -0.3333333   0.6279705), wk =   0.0740741
        k(   14) = (   0.3333333  -0.3333333  -0.6279705), wk =   0.0740741

     Dense  grid:  1374303 G-vectors     FFT dimensions: ( 180, 180,  96)

     Smooth grid:   264401 G-vectors     FFT dimensions: ( 100, 100,  54)

     Estimated max dynamical RAM per process >     469.81 MB

     Estimated total dynamical RAM >      11.01 GB

     Check: negative core charge=   -0.000010
     Generating pointlists ...
     new r_m :   0.1076 (alat units)  1.7517 (a.u.) for type    1

     Initial potential from superposition of free atoms

     starting charge  447.98773, renormalised to  448.00000
     Starting wfcs are  364 randomized atomic wfcs
     Checking if some PAW data can be deallocated... 

     total cpu time spent up to now is       70.7 secs

     Self-consistent Calculation

     iteration #  1     ecut=    90.00 Ry     beta= 0.20
     Davidson diagonalization with overlap
     ethr =  1.00E-02,  avg # of iterations =  2.0

     Threshold (ethr) on eigenvalues was too large:
     Diagonalizing with lowered threshold

     Davidson diagonalization with overlap
     ethr =  3.64E-04,  avg # of iterations =  4.0

     total cpu time spent up to now is      424.1 secs

     total energy              =   -9218.52999521 Ry
     estimated scf accuracy    <       1.74484634 Ry

     total magnetization       =    73.19 Bohr mag/cell
     absolute magnetization    =    73.80 Bohr mag/cell

     iteration #  2     ecut=    90.00 Ry     beta= 0.20
     Davidson diagonalization with overlap
     ethr =  3.89E-04,  avg # of iterations =  2.3

     total cpu time spent up to now is      591.7 secs

     total energy              =   -9218.48437049 Ry
     estimated scf accuracy    <       8.51908845 Ry

     total magnetization       =    68.06 Bohr mag/cell
     absolute magnetization    =    69.15 Bohr mag/cell

     iteration #  3     ecut=    90.00 Ry     beta= 0.20
     Davidson diagonalization with overlap
     ethr =  3.89E-04,  avg # of iterations =  2.0

     negative rho (up, down):  0.000E+00 1.542E-05

     total cpu time spent up to now is      740.4 secs

     total energy              =   -9219.01813148 Ry
     estimated scf accuracy    <       0.31494716 Ry

     total magnetization       =    71.63 Bohr mag/cell
     absolute magnetization    =    72.70 Bohr mag/cell

     iteration #  4     ecut=    90.00 Ry     beta= 0.20
     Davidson diagonalization with overlap
     ethr =  7.03E-05,  avg # of iterations =  2.3

     negative rho (up, down):  0.000E+00 4.877E-05

     total cpu time spent up to now is      907.6 secs

     total energy              =   -9219.06543150 Ry
     estimated scf accuracy    <       0.84486200 Ry

     total magnetization       =    70.83 Bohr mag/cell
     absolute magnetization    =    72.39 Bohr mag/cell

     iteration #  5     ecut=    90.00 Ry     beta= 0.20
     Davidson diagonalization with overlap
     ethr =  7.03E-05,  avg # of iterations =  1.4

     negative rho (up, down):  0.000E+00 1.341E-04

     total cpu time spent up to now is     1044.2 secs

     total energy              =   -9219.15275443 Ry
     estimated scf accuracy    <       0.12148648 Ry

     total magnetization       =    70.17 Bohr mag/cell
     absolute magnetization    =    72.07 Bohr mag/cell

     iteration #  6     ecut=    90.00 Ry     beta= 0.20
     Davidson diagonalization with overlap
     ethr =  2.71E-05,  avg # of iterations =  2.1

     negative rho (up, down):  0.000E+00 4.867E-04

     total cpu time spent up to now is     1197.2 secs

     total energy              =   -9219.19428505 Ry
     estimated scf accuracy    <       0.63579169 Ry

     total magnetization       =    69.42 Bohr mag/cell
     absolute magnetization    =    71.65 Bohr mag/cell

     iteration #  7     ecut=    90.00 Ry     beta= 0.20
     Davidson diagonalization with overlap
     ethr =  2.71E-05,  avg # of iterations =  1.8

     negative rho (up, down):  0.000E+00 6.780E-04

     total cpu time spent up to now is     1346.4 secs

     total energy              =   -9219.22694733 Ry
     estimated scf accuracy    <       0.05875475 Ry

     total magnetization       =    68.52 Bohr mag/cell
     absolute magnetization    =    71.30 Bohr mag/cell

     iteration #  8     ecut=    90.00 Ry     beta= 0.20
     Davidson diagonalization with overlap
     ethr =  1.31E-05,  avg # of iterations =  1.5

     negative rho (up, down):  0.000E+00 7.331E-04

     total cpu time spent up to now is     1485.5 secs

     total energy              =   -9219.22961326 Ry
     estimated scf accuracy    <       0.08624633 Ry

     total magnetization       =    68.19 Bohr mag/cell
     absolute magnetization    =    71.24 Bohr mag/cell

     iteration #  9     ecut=    90.00 Ry     beta= 0.20
     Davidson diagonalization with overlap
     ethr =  1.31E-05,  avg # of iterations =  1.0

     negative rho (up, down):  0.000E+00 7.557E-04

     total cpu time spent up to now is     1613.4 secs

     total energy              =   -9219.23385842 Ry
     estimated scf accuracy    <       0.02043379 Ry

     total magnetization       =    68.12 Bohr mag/cell
     absolute magnetization    =    71.27 Bohr mag/cell

     iteration # 10     ecut=    90.00 Ry     beta= 0.20
     Davidson diagonalization with overlap
     ethr =  4.56E-06,  avg # of iterations =  1.5

     negative rho (up, down):  0.000E+00 7.893E-04

     total cpu time spent up to now is     1753.5 secs

     total energy              =   -9219.23673169 Ry
     estimated scf accuracy    <       0.00791252 Ry

     total magnetization       =    68.08 Bohr mag/cell
     absolute magnetization    =    71.29 Bohr mag/cell

     iteration # 11     ecut=    90.00 Ry     beta= 0.20
     Davidson diagonalization with overlap
     ethr =  1.77E-06,  avg # of iterations =  4.3

     negative rho (up, down):  0.000E+00 7.873E-04

     total cpu time spent up to now is     1920.0 secs

     total energy              =   -9219.23715818 Ry
     estimated scf accuracy    <       0.00412330 Ry

     total magnetization       =    67.81 Bohr mag/cell
     absolute magnetization    =    71.16 Bohr mag/cell

     iteration # 12     ecut=    90.00 Ry     beta= 0.20
     Davidson diagonalization with overlap
     ethr =  9.20E-07,  avg # of iterations =  1.8

     negative rho (up, down):  0.000E+00 7.693E-04

     total cpu time spent up to now is     2067.4 secs

     total energy              =   -9219.23819157 Ry
     estimated scf accuracy    <       0.00678333 Ry

     total magnetization       =    67.82 Bohr mag/cell
     absolute magnetization    =    71.17 Bohr mag/cell

     iteration # 13     ecut=    90.00 Ry     beta= 0.20
     Davidson diagonalization with overlap
     ethr =  9.20E-07,  avg # of iterations =  1.5

     negative rho (up, down):  0.000E+00 7.600E-04

     total cpu time spent up to now is     2205.7 secs

     total energy              =   -9219.23865434 Ry
     estimated scf accuracy    <       0.00515197 Ry

     total magnetization       =    67.67 Bohr mag/cell
     absolute magnetization    =    71.10 Bohr mag/cell

     iteration # 14     ecut=    90.00 Ry     beta= 0.20
     Davidson diagonalization with overlap
     ethr =  9.20E-07,  avg # of iterations =  1.0

     negative rho (up, down):  0.000E+00 7.412E-04

     total cpu time spent up to now is     2334.0 secs

     total energy              =   -9219.23911363 Ry
     estimated scf accuracy    <       0.00071665 Ry

     total magnetization       =    67.64 Bohr mag/cell
     absolute magnetization    =    71.09 Bohr mag/cell

     iteration # 15     ecut=    90.00 Ry     beta= 0.20
     Davidson diagonalization with overlap
     ethr =  1.60E-07,  avg # of iterations =  3.2

     negative rho (up, down):  0.000E+00 7.082E-04

     total cpu time spent up to now is     2498.3 secs

     total energy              =   -9219.23930205 Ry
     estimated scf accuracy    <       0.00109847 Ry

     total magnetization       =    67.57 Bohr mag/cell
     absolute magnetization    =    71.05 Bohr mag/cell

     iteration # 16     ecut=    90.00 Ry     beta= 0.20
     Davidson diagonalization with overlap
     ethr =  1.60E-07,  avg # of iterations =  1.6

     negative rho (up, down):  0.000E+00 7.005E-04

     total cpu time spent up to now is     2639.0 secs

     total energy              =   -9219.23937548 Ry
     estimated scf accuracy    <       0.00071611 Ry

     total magnetization       =    67.53 Bohr mag/cell
     absolute magnetization    =    71.01 Bohr mag/cell

     iteration # 17     ecut=    90.00 Ry     beta= 0.20
     Davidson diagonalization with overlap
     ethr =  1.60E-07,  avg # of iterations =  1.2

     negative rho (up, down):  0.000E+00 6.994E-04

     total cpu time spent up to now is     2772.2 secs

     total energy              =   -9219.23942637 Ry
     estimated scf accuracy    <       0.00092319 Ry

     total magnetization       =    67.51 Bohr mag/cell
     absolute magnetization    =    71.00 Bohr mag/cell

     iteration # 18     ecut=    90.00 Ry     beta= 0.20
     Davidson diagonalization with overlap
     ethr =  1.60E-07,  avg # of iterations =  1.1

     negative rho (up, down):  0.000E+00 6.853E-04

     total cpu time spent up to now is     2901.3 secs

     total energy              =   -9219.23947609 Ry
     estimated scf accuracy    <       0.00048926 Ry

     total magnetization       =    67.49 Bohr mag/cell
     absolute magnetization    =    70.99 Bohr mag/cell

     iteration # 19     ecut=    90.00 Ry     beta= 0.20
     Davidson diagonalization with overlap
     ethr =  1.09E-07,  avg # of iterations =  1.1

     negative rho (up, down):  0.000E+00 6.804E-04

     total cpu time spent up to now is     3031.1 secs

     total energy              =   -9219.23950029 Ry
     estimated scf accuracy    <       0.00047173 Ry

     total magnetization       =    67.47 Bohr mag/cell
     absolute magnetization    =    70.97 Bohr mag/cell

     iteration # 20     ecut=    90.00 Ry     beta= 0.20
     Davidson diagonalization with overlap
     ethr =  1.05E-07,  avg # of iterations =  1.0

     negative rho (up, down):  0.000E+00 6.799E-04

     total cpu time spent up to now is     3159.3 secs

     total energy              =   -9219.23952739 Ry
     estimated scf accuracy    <       0.00010413 Ry

     total magnetization       =    67.46 Bohr mag/cell
     absolute magnetization    =    70.95 Bohr mag/cell

     iteration # 21     ecut=    90.00 Ry     beta= 0.20
     Davidson diagonalization with overlap
     ethr =  2.32E-08,  avg # of iterations =  2.4

     negative rho (up, down):  0.000E+00 6.799E-04

     total cpu time spent up to now is     3308.5 secs

     total energy              =   -9219.23953626 Ry
     estimated scf accuracy    <       0.00016986 Ry

     total magnetization       =    67.44 Bohr mag/cell
     absolute magnetization    =    70.93 Bohr mag/cell

     iteration # 22     ecut=    90.00 Ry     beta= 0.20
     Davidson diagonalization with overlap
     ethr =  2.32E-08,  avg # of iterations =  1.5

     negative rho (up, down):  0.000E+00 6.785E-04

     total cpu time spent up to now is     3447.5 secs

     total energy              =   -9219.23954974 Ry
     estimated scf accuracy    <       0.00004535 Ry

     total magnetization       =    67.44 Bohr mag/cell
     absolute magnetization    =    70.93 Bohr mag/cell

     iteration # 23     ecut=    90.00 Ry     beta= 0.20
     Davidson diagonalization with overlap
     ethr =  1.01E-08,  avg # of iterations =  2.0

     negative rho (up, down):  0.000E+00 6.805E-04

     total cpu time spent up to now is     3600.7 secs

     total energy              =   -9219.23955454 Ry
     estimated scf accuracy    <       0.00007881 Ry

     total magnetization       =    67.43 Bohr mag/cell
     absolute magnetization    =    70.91 Bohr mag/cell

     iteration # 24     ecut=    90.00 Ry     beta= 0.20
     Davidson diagonalization with overlap
     ethr =  1.01E-08,  avg # of iterations =  1.7

     negative rho (up, down):  0.000E+00 6.826E-04

     total cpu time spent up to now is     3745.7 secs

     total energy              =   -9219.23955827 Ry
     estimated scf accuracy    <       0.00018169 Ry

     total magnetization       =    67.42 Bohr mag/cell
     absolute magnetization    =    70.91 Bohr mag/cell

     iteration # 25     ecut=    90.00 Ry     beta= 0.20
     Davidson diagonalization with overlap
     ethr =  1.01E-08,  avg # of iterations =  1.1

     negative rho (up, down):  0.000E+00 6.827E-04

     total cpu time spent up to now is     3874.7 secs

     total energy              =   -9219.23956522 Ry
     estimated scf accuracy    <       0.00001763 Ry

     total magnetization       =    67.42 Bohr mag/cell
     absolute magnetization    =    70.90 Bohr mag/cell

     iteration # 26     ecut=    90.00 Ry     beta= 0.20
     Davidson diagonalization with overlap
     ethr =  3.93E-09,  avg # of iterations =  1.7

     negative rho (up, down):  0.000E+00 6.860E-04

     total cpu time spent up to now is     4016.9 secs

     total energy              =   -9219.23956910 Ry
     estimated scf accuracy    <       0.00002649 Ry

     total magnetization       =    67.41 Bohr mag/cell
     absolute magnetization    =    70.90 Bohr mag/cell

     iteration # 27     ecut=    90.00 Ry     beta= 0.20
     Davidson diagonalization with overlap
     ethr =  3.93E-09,  avg # of iterations =  1.6

     negative rho (up, down):  0.000E+00 6.888E-04

     total cpu time spent up to now is     4160.9 secs

     total energy              =   -9219.23957119 Ry
     estimated scf accuracy    <       0.00004697 Ry

     total magnetization       =    67.40 Bohr mag/cell
     absolute magnetization    =    70.88 Bohr mag/cell

     iteration # 28     ecut=    90.00 Ry     beta= 0.20
     Davidson diagonalization with overlap
     ethr =  3.93E-09,  avg # of iterations =  1.2

     negative rho (up, down):  0.000E+00 6.879E-04

     total cpu time spent up to now is     4293.9 secs

     total energy              =   -9219.23957267 Ry
     estimated scf accuracy    <       0.00000753 Ry

     total magnetization       =    67.40 Bohr mag/cell
     absolute magnetization    =    70.88 Bohr mag/cell

     iteration # 29     ecut=    90.00 Ry     beta= 0.20
     Davidson diagonalization with overlap
     ethr =  1.68E-09,  avg # of iterations =  1.8

     negative rho (up, down):  0.000E+00 6.884E-04

     total cpu time spent up to now is     4441.4 secs

     total energy              =   -9219.23957301 Ry
     estimated scf accuracy    <       0.00001652 Ry

     total magnetization       =    67.39 Bohr mag/cell
     absolute magnetization    =    70.88 Bohr mag/cell

     iteration # 30     ecut=    90.00 Ry     beta= 0.20
     Davidson diagonalization with overlap
     ethr =  1.68E-09,  avg # of iterations =  1.5

     negative rho (up, down):  0.000E+00 6.905E-04

     total cpu time spent up to now is     4582.3 secs

     total energy              =   -9219.23957370 Ry
     estimated scf accuracy    <       0.00001518 Ry

     total magnetization       =    67.39 Bohr mag/cell
     absolute magnetization    =    70.87 Bohr mag/cell

     iteration # 31     ecut=    90.00 Ry     beta= 0.20
     Davidson diagonalization with overlap
     ethr =  1.68E-09,  avg # of iterations =  1.1

     negative rho (up, down):  0.000E+00 6.902E-04

     total cpu time spent up to now is     4711.3 secs

     total energy              =   -9219.23957443 Ry
     estimated scf accuracy    <       0.00000166 Ry

     total magnetization       =    67.39 Bohr mag/cell
     absolute magnetization    =    70.87 Bohr mag/cell

     iteration # 32     ecut=    90.00 Ry     beta= 0.20
     Davidson diagonalization with overlap
     ethr =  3.70E-10,  avg # of iterations =  2.3

     negative rho (up, down):  0.000E+00 6.905E-04

     total cpu time spent up to now is     4867.3 secs

     total energy              =   -9219.23957456 Ry
     estimated scf accuracy    <       0.00000281 Ry

     total magnetization       =    67.39 Bohr mag/cell
     absolute magnetization    =    70.87 Bohr mag/cell

     iteration # 33     ecut=    90.00 Ry     beta= 0.20
     Davidson diagonalization with overlap
     ethr =  3.70E-10,  avg # of iterations =  1.9

     negative rho (up, down):  0.000E+00 6.906E-04

     total cpu time spent up to now is     5016.5 secs

     total energy              =   -9219.23957468 Ry
     estimated scf accuracy    <       0.00000331 Ry

     total magnetization       =    67.38 Bohr mag/cell
     absolute magnetization    =    70.86 Bohr mag/cell

     iteration # 34     ecut=    90.00 Ry     beta= 0.20
     Davidson diagonalization with overlap
     ethr =  3.70E-10,  avg # of iterations =  1.0

     negative rho (up, down):  0.000E+00 6.907E-04

     total cpu time spent up to now is     5143.8 secs

     total energy              =   -9219.23957482 Ry
     estimated scf accuracy    <       0.00000039 Ry

     total magnetization       =    67.38 Bohr mag/cell
     absolute magnetization    =    70.86 Bohr mag/cell

     iteration # 35     ecut=    90.00 Ry     beta= 0.20
     Davidson diagonalization with overlap
     ethr =  8.79E-11,  avg # of iterations =  3.0

     negative rho (up, down):  0.000E+00 6.902E-04

     total cpu time spent up to now is     5306.8 secs

     total energy              =   -9219.23957489 Ry
     estimated scf accuracy    <       0.00000094 Ry

     total magnetization       =    67.38 Bohr mag/cell
     absolute magnetization    =    70.86 Bohr mag/cell

     iteration # 36     ecut=    90.00 Ry     beta= 0.20
     Davidson diagonalization with overlap
     ethr =  8.79E-11,  avg # of iterations =  1.2

     negative rho (up, down):  0.000E+00 6.902E-04

     total cpu time spent up to now is     5438.9 secs

     total energy              =   -9219.23957494 Ry
     estimated scf accuracy    <       0.00000020 Ry

     total magnetization       =    67.38 Bohr mag/cell
     absolute magnetization    =    70.86 Bohr mag/cell

     iteration # 37     ecut=    90.00 Ry     beta= 0.20
     Davidson diagonalization with overlap
     ethr =  4.51E-11,  avg # of iterations =  1.4

     negative rho (up, down):  0.000E+00 6.900E-04

     total cpu time spent up to now is     5576.1 secs

     total energy              =   -9219.23957496 Ry
     estimated scf accuracy    <       0.00000025 Ry

     total magnetization       =    67.38 Bohr mag/cell
     absolute magnetization    =    70.86 Bohr mag/cell

     iteration # 38     ecut=    90.00 Ry     beta= 0.20
     Davidson diagonalization with overlap
     ethr =  4.51E-11,  avg # of iterations =  1.1

     negative rho (up, down):  0.000E+00 6.894E-04

     total cpu time spent up to now is     5706.2 secs

     total energy              =   -9219.23957500 Ry
     estimated scf accuracy    <       0.00000029 Ry

     total magnetization       =    67.38 Bohr mag/cell
     absolute magnetization    =    70.86 Bohr mag/cell

     iteration # 39     ecut=    90.00 Ry     beta= 0.20
     Davidson diagonalization with overlap
     ethr =  4.51E-11,  avg # of iterations =  1.2

     negative rho (up, down):  0.000E+00 6.894E-04

     total cpu time spent up to now is     5838.4 secs

     total energy              =   -9219.23957502 Ry
     estimated scf accuracy    <       0.00000005 Ry

     total magnetization       =    67.38 Bohr mag/cell
     absolute magnetization    =    70.86 Bohr mag/cell

     iteration # 40     ecut=    90.00 Ry     beta= 0.20
     Davidson diagonalization with overlap
     ethr =  1.06E-11,  avg # of iterations =  2.3

     negative rho (up, down):  0.000E+00 6.893E-04

     total cpu time spent up to now is     5997.6 secs

     total energy              =   -9219.23957503 Ry
     estimated scf accuracy    <       0.00000020 Ry

     total magnetization       =    67.38 Bohr mag/cell
     absolute magnetization    =    70.86 Bohr mag/cell

     iteration # 41     ecut=    90.00 Ry     beta= 0.20
     Davidson diagonalization with overlap
     ethr =  1.06E-11,  avg # of iterations =  1.8

     negative rho (up, down):  0.000E+00 6.892E-04

     total cpu time spent up to now is     6145.6 secs

     total energy              =   -9219.23957504 Ry
     estimated scf accuracy    <       0.00000007 Ry

     total magnetization       =    67.38 Bohr mag/cell
     absolute magnetization    =    70.86 Bohr mag/cell

     iteration # 42     ecut=    90.00 Ry     beta= 0.20
     Davidson diagonalization with overlap
     ethr =  1.06E-11,  avg # of iterations =  1.1

     negative rho (up, down):  0.000E+00 6.892E-04

     total cpu time spent up to now is     6276.2 secs

     total energy              =   -9219.23957504 Ry
     estimated scf accuracy    <       0.00000002 Ry

     total magnetization       =    67.38 Bohr mag/cell
     absolute magnetization    =    70.86 Bohr mag/cell

     iteration # 43     ecut=    90.00 Ry     beta= 0.20
     Davidson diagonalization with overlap
     ethr =  5.57E-12,  avg # of iterations =  1.1

     negative rho (up, down):  0.000E+00 6.892E-04

     Magnetic moment per site:
     atom:    1    charge:   13.9263    magn:    2.1984    constr:    0.0000
     atom:    2    charge:   13.9263    magn:    2.1984    constr:    0.0000
     atom:    3    charge:   13.9263    magn:    2.1984    constr:    0.0000
     atom:    4    charge:   13.9264    magn:    2.1984    constr:    0.0000
     atom:    5    charge:   13.9263    magn:    2.1984    constr:    0.0000
     atom:    6    charge:   13.9263    magn:    2.1984    constr:    0.0000
     atom:    7    charge:   13.9264    magn:    2.1984    constr:    0.0000
     atom:    8    charge:   13.9263    magn:    2.1984    constr:    0.0000
     atom:    9    charge:   13.8771    magn:    2.4242    constr:    0.0000
     atom:   10    charge:   13.8771    magn:    2.4242    constr:    0.0000
     atom:   11    charge:   13.8771    magn:    2.4242    constr:    0.0000
     atom:   12    charge:   13.8771    magn:    2.4242    constr:    0.0000
     atom:   13    charge:   13.8771    magn:    2.4242    constr:    0.0000
     atom:   14    charge:   13.8771    magn:    2.4242    constr:    0.0000
     atom:   15    charge:   13.8771    magn:    2.4242    constr:    0.0000
     atom:   16    charge:   13.8771    magn:    2.4242    constr:    0.0000
     atom:   17    charge:   13.8522    magn:    2.5286    constr:    0.0000
     atom:   18    charge:   13.8522    magn:    2.5286    constr:    0.0000
     atom:   19    charge:   13.8521    magn:    2.5286    constr:    0.0000
     atom:   20    charge:   13.8521    magn:    2.5286    constr:    0.0000
     atom:   21    charge:   13.8522    magn:    2.5286    constr:    0.0000
     atom:   22    charge:   13.8521    magn:    2.5286    constr:    0.0000
     atom:   23    charge:   13.8522    magn:    2.5286    constr:    0.0000
     atom:   24    charge:   13.8522    magn:    2.5286    constr:    0.0000
     atom:   25    charge:   13.8530    magn:    2.5993    constr:    0.0000
     atom:   26    charge:   13.8530    magn:    2.5993    constr:    0.0000
     atom:   27    charge:   13.8530    magn:    2.5993    constr:    0.0000
     atom:   28    charge:   13.8530    magn:    2.5993    constr:    0.0000

     total cpu time spent up to now is     6405.6 secs

     End of self-consistent calculation

 ------ SPIN UP ------------


          k = 0.0000 0.0000 0.0000 ( 32999 PWs)   bands (ev):

   -71.3333 -71.3308 -71.2986 -71.2986 -71.2867 -71.2834 -71.2724 -71.2692
   -71.2471 -71.2471 -71.2429 -71.2429 -71.2207 -71.2187 -71.2165 -71.2165
   -71.1989 -71.1989 -71.1977 -71.1947 -71.0820 -71.0775 -71.0775 -71.0743
   -71.0013 -71.0012 -71.0012 -71.0012 -37.5175 -37.5074 -37.5024 -37.5024
   -37.4743 -37.4640 -37.4584 -37.4570 -37.4511 -37.4334 -37.4274 -37.4274
   -37.4208 -37.4208 -37.4082 -37.4082 -37.3884 -37.3816 -37.3816 -37.3727
   -37.3727 -37.3718 -37.3644 -37.3601 -37.3561 -37.3542 -37.3263 -37.3204
   -37.3199 -37.3179 -37.3171 -37.3171 -37.3147 -37.2970 -37.2970 -37.2947
   -37.2945 -37.2847 -37.2698 -37.2698 -37.2673 -37.2543 -37.2543 -37.2524
   -37.2515 -37.2493 -37.2392 -37.2391 -37.2324 -37.2314 -37.2312 -37.2176
   -37.2124 -37.2124 -37.2027 -37.2027 -37.1633 -37.1590 -37.1437 -37.1437
   -37.1412 -37.1069 -37.1069 -37.0933 -37.0869 -37.0869 -37.0859 -37.0859
   -37.0810 -37.0810 -37.0635 -37.0608 -37.0463 -37.0296 -37.0296 -37.0204
   -37.0061 -36.9936 -36.9936 -36.9894 -36.7987 -36.7957 -36.7957 -36.7928
     8.6521  10.4468  10.4468  10.6384  11.1354  11.7240  11.8246  11.9862
    11.9862  12.2049  12.2351  12.2351  12.2720  12.3752  12.4780  12.4780
    12.4895  12.7418  12.7935  12.8441  12.8441  12.8986  12.8986  12.9163
    13.0302  13.0982  13.2067  13.2559  13.2559  13.2657  13.4170  13.4366
    13.4366  13.4424  13.4424  13.5036  13.5782  13.5969  13.6402  13.6895
    13.7175  13.7175  13.7427  13.7723  13.7723  13.7810  13.7903  13.7903
    13.7904  13.8255  13.8255  13.8433  13.8433  13.8547  13.8615  13.9630
    13.9909  14.0647  14.1188  14.2273  14.2522  14.3413  14.3413  14.4031
    14.5107  14.5107  14.5700  14.5725  14.5725  14.5746  14.5818  14.6119
    14.6551  14.6561  14.6774  14.6868  14.6881  14.6909  14.6909  14.7223
    14.7590  14.8917  14.8917  14.9824  15.0801  15.0801  15.0898  15.1026
    15.1434  15.1434  15.1717  15.2067  15.2067  15.2908  15.2908  15.3395
    15.3395  15.4175  15.4282  15.4502  15.5908  15.6010  15.6708  15.6708
    15.6739  15.6739  15.7101  15.7582  15.8086  15.8591  15.8922  15.9142
    15.9142  16.0021  16.0255  16.0255  16.0525  16.0780  16.1035  16.1194
    16.1213  16.1435  16.1435  16.1487  16.1487  16.2545  16.3285  16.3285
    16.3480  16.3480  16.3904  16.4467  16.4872  16.4879  16.5510  16.6057
    16.6057  16.6557  16.6557  16.7158  16.7158  16.7325  16.8101  16.8860
    16.8860  17.1181  17.3700  17.3700  17.4761  18.8005  18.8805  18.9211
    18.9211  19.3211  19.4157  19.6158  19.7604

          k = 0.0000 0.0000 0.6280 ( 33090 PWs)   bands (ev):

   -71.3313 -71.3302 -71.2970 -71.2970 -71.2825 -71.2796 -71.2753 -71.2723
   -71.2455 -71.2455 -71.2418 -71.2418 -71.2213 -71.2204 -71.2191 -71.2191
   -71.2000 -71.2000 -71.1976 -71.1960 -71.0633 -71.0604 -71.0604 -71.0582
   -71.0201 -71.0193 -71.0193 -71.0188 -37.5269 -37.5206 -37.5113 -37.5113
   -37.4675 -37.4628 -37.4202 -37.4202 -37.4178 -37.4166 -37.4021 -37.4021
   -37.4019 -37.3918 -37.3917 -37.3834 -37.3798 -37.3798 -37.3656 -37.3640
   -37.3389 -37.3389 -37.3349 -37.3349 -37.3306 -37.3279 -37.3244 -37.3187
   -37.3162 -37.3075 -37.3075 -37.3042 -37.2931 -37.2908 -37.2902 -37.2902
   -37.2839 -37.2838 -37.2803 -37.2701 -37.2698 -37.2679 -37.2590 -37.2590
   -37.2566 -37.2559 -37.2553 -37.2553 -37.2520 -37.2509 -37.2260 -37.2220
   -37.2220 -37.2045 -37.1860 -37.1860 -37.1572 -37.1544 -37.1473 -37.1473
   -37.1075 -37.1000 -37.1000 -37.0940 -37.0940 -37.0867 -37.0859 -37.0826
   -37.0826 -37.0705 -37.0705 -37.0693 -37.0411 -37.0341 -37.0341 -37.0159
   -37.0121 -37.0012 -37.0012 -36.9934 -36.9219 -36.9129 -36.9127 -36.9127
     9.5043  11.1441  11.1441  11.2691  11.5261  11.6906  12.1496  12.1938
    12.2182  12.2197  12.2197  12.2782  12.3085  12.3085  12.4540  12.5726
    12.5726  12.5775  12.6235  12.6859  12.6859  12.9310  12.9310  12.9592
    12.9907  13.0528  13.0528  13.1108  13.1615  13.3460  13.3870  13.3870
    13.4390  13.4929  13.5510  13.5694  13.5694  13.5871  13.6303  13.6303
    13.6460  13.6616  13.6666  13.6666  13.6889  13.7362  13.7761  13.7938
    13.8071  13.8071  13.8687  13.8824  13.9399  13.9771  13.9771  14.0434
    14.0684  14.0937  14.1100  14.1260  14.1260  14.2637  14.2643  14.2643
    14.3212  14.3841  14.3841  14.4123  14.4501  14.4634  14.5640  14.5640
    14.5880  14.5880  14.6522  14.7061  14.7137  14.7667  14.7667  14.8441
    14.8715  14.9158  14.9837  15.0002  15.0653  15.0653  15.1305  15.1679
    15.1679  15.2460  15.2460  15.2600  15.2687  15.2687  15.3105  15.4082
    15.4383  15.4872  15.5026  15.5383  15.5383  15.5935  15.6228  15.7907
    15.7907  15.8067  15.8444  15.8444  15.8852  15.9006  15.9006  15.9150
    15.9840  16.0109  16.0528  16.0530  16.0551  16.0582  16.0582  16.1015
    16.1015  16.1535  16.1834  16.1834  16.2509  16.2509  16.2659  16.3211
    16.3412  16.3546  16.3546  16.4137  16.4137  16.4375  16.4840  16.5301
    16.5542  16.5542  16.5782  16.6502  16.6504  16.6504  16.6714  16.7276
    16.7276  16.7442  16.8591  16.9101  17.3153  17.3153  17.4250  17.4250
    17.4269  17.4426  18.0527  18.8337  18.8337

          k = 0.0000 0.3333 0.0000 ( 33017 PWs)   bands (ev):

   -71.3321 -71.3308 -71.3014 -71.3011 -71.2837 -71.2824 -71.2710 -71.2694
   -71.2465 -71.2465 -71.2442 -71.2441 -71.2200 -71.2190 -71.2166 -71.2165
   -71.1994 -71.1992 -71.1966 -71.1952 -71.0809 -71.0786 -71.0767 -71.0751
   -71.0013 -71.0012 -71.0012 -71.0012 -37.5201 -37.5167 -37.5014 -37.4990
   -37.4634 -37.4564 -37.4540 -37.4540 -37.4491 -37.4328 -37.4322 -37.4292
   -37.4163 -37.4136 -37.4064 -37.3982 -37.3954 -37.3880 -37.3854 -37.3771
   -37.3692 -37.3665 -37.3658 -37.3603 -37.3547 -37.3438 -37.3369 -37.3366
   -37.3303 -37.3270 -37.3171 -37.3161 -37.3155 -37.3064 -37.3032 -37.2986
   -37.2876 -37.2846 -37.2808 -37.2748 -37.2633 -37.2575 -37.2546 -37.2546
   -37.2495 -37.2462 -37.2416 -37.2414 -37.2380 -37.2338 -37.2273 -37.2207
   -37.2138 -37.2134 -37.1823 -37.1768 -37.1642 -37.1613 -37.1609 -37.1494
   -37.1128 -37.1084 -37.0974 -37.0916 -37.0892 -37.0891 -37.0873 -37.0832
   -37.0755 -37.0668 -37.0639 -37.0472 -37.0425 -37.0341 -37.0278 -37.0232
   -37.0175 -37.0142 -36.9939 -36.9931 -36.7980 -36.7965 -36.7950 -36.7935
     8.8941   9.5826  10.6445  11.0414  11.1831  11.5265  11.7382  11.9170
    12.1736  12.1833  12.2511  12.3124  12.4283  12.4623  12.4657  12.5418
    12.5832  12.6668  12.6791  12.7637  12.7834  12.8955  12.9191  13.0291
    13.0378  13.0522  13.1407  13.2306  13.2419  13.2926  13.3555  13.4131
    13.4380  13.4752  13.4940  13.5521  13.5623  13.5943  13.6043  13.6130
    13.6354  13.6637  13.6852  13.7189  13.7333  13.7350  13.7543  13.7599
    13.8084  13.8277  13.8925  13.9413  13.9682  13.9894  13.9933  14.0660
    14.0841  14.1450  14.1970  14.2249  14.2330  14.3008  14.3163  14.3218
    14.3667  14.4920  14.4977  14.5238  14.5292  14.5397  14.5608  14.5694
    14.5887  14.6133  14.6167  14.6450  14.6720  14.6788  14.7651  14.7988
    14.8397  14.9222  14.9455  15.0282  15.0670  15.0980  15.1022  15.1171
    15.1792  15.1809  15.2178  15.2260  15.2393  15.2488  15.2964  15.3218
    15.3243  15.3881  15.4990  15.5213  15.5529  15.5665  15.5909  15.6748
    15.7087  15.7393  15.7974  15.8308  15.8667  15.9030  15.9101  15.9176
    15.9754  15.9765  15.9828  16.0045  16.0695  16.0928  16.0978  16.1148
    16.1549  16.1785  16.1898  16.2402  16.2405  16.2862  16.3381  16.3490
    16.3521  16.3710  16.3842  16.3958  16.3988  16.4259  16.4725  16.5271
    16.5371  16.5730  16.6219  16.6411  16.7094  16.7266  16.7626  16.9875
    17.0579  17.3788  17.4201  17.4740  17.4964  17.8362  18.7552  18.9216
    18.9309  19.0504  19.1377  19.4713  19.6239

          k = 0.0000 0.3333 0.6280 ( 33064 PWs)   bands (ev):

   -71.3305 -71.3299 -71.2993 -71.2992 -71.2804 -71.2791 -71.2737 -71.2723
   -71.2449 -71.2449 -71.2429 -71.2428 -71.2213 -71.2209 -71.2189 -71.2188
   -71.1999 -71.1999 -71.1974 -71.1965 -71.0626 -71.0611 -71.0598 -71.0587
   -71.0199 -71.0195 -71.0192 -71.0189 -37.5293 -37.5269 -37.5112 -37.5105
   -37.4543 -37.4510 -37.4193 -37.4179 -37.4166 -37.4156 -37.4090 -37.4066
   -37.3949 -37.3906 -37.3900 -37.3872 -37.3831 -37.3748 -37.3710 -37.3571
   -37.3563 -37.3482 -37.3396 -37.3364 -37.3312 -37.3247 -37.3225 -37.3224
   -37.3188 -37.3169 -37.3091 -37.3053 -37.3025 -37.2998 -37.2879 -37.2852
   -37.2815 -37.2766 -37.2751 -37.2734 -37.2678 -37.2671 -37.2601 -37.2592
   -37.2581 -37.2571 -37.2518 -37.2503 -37.2436 -37.2424 -37.2312 -37.2255
   -37.2184 -37.2097 -37.1741 -37.1702 -37.1562 -37.1548 -37.1530 -37.1486
   -37.1057 -37.1036 -37.1012 -37.0961 -37.0954 -37.0938 -37.0829 -37.0814
   -37.0781 -37.0727 -37.0637 -37.0614 -37.0470 -37.0450 -37.0290 -37.0147
   -37.0127 -37.0097 -37.0003 -36.9960 -36.9182 -36.9144 -36.9118 -36.9116
     9.7290  10.3610  11.2991  11.5967  11.6519  11.7302  11.9246  11.9743
    12.1454  12.1986  12.2971  12.3197  12.3909  12.3920  12.4541  12.5155
    12.6437  12.6452  12.6878  12.7280  12.7815  12.8598  12.8851  12.9480
    13.0276  13.0524  13.1215  13.1352  13.1685  13.2234  13.3699  13.4110
    13.4447  13.4811  13.5002  13.5461  13.5595  13.5729  13.5881  13.6262
    13.6411  13.6426  13.6805  13.7231  13.7460  13.7783  13.7938  13.8102
    13.8322  13.8358  13.9149  13.9217  13.9262  13.9502  13.9806  13.9984
    14.0194  14.0765  14.0829  14.1419  14.1516  14.2187  14.2595  14.2871
    14.3178  14.3308  14.3895  14.3900  14.4351  14.5037  14.5150  14.5764
    14.5773  14.6833  14.6888  14.7098  14.7482  14.7745  14.8013  14.8660
    14.8923  14.9295  14.9847  15.0394  15.0442  15.0577  15.0905  15.1308
    15.1932  15.2141  15.2779  15.2909  15.3487  15.3798  15.4006  15.4121
    15.4239  15.5098  15.5207  15.5307  15.5743  15.6065  15.6570  15.6847
    15.7000  15.7616  15.7892  15.8350  15.8646  15.8726  15.9120  15.9324
    15.9400  15.9801  15.9879  16.0355  16.0363  16.0493  16.0660  16.0677
    16.0946  16.1602  16.1619  16.1794  16.2074  16.2267  16.2508  16.3043
    16.3189  16.3487  16.4000  16.4122  16.4299  16.4626  16.4688  16.4966
    16.5176  16.5332  16.5460  16.5769  16.5870  16.6057  16.6479  16.6690
    16.6750  16.7315  16.7625  16.7964  17.1644  17.4490  17.5603  17.6195
    18.1255  18.1627  18.2524  18.3599  18.7390

          k = 0.0000 0.3333-0.6280 ( 33064 PWs)   bands (ev):

   -71.3305 -71.3299 -71.2993 -71.2992 -71.2804 -71.2791 -71.2737 -71.2723
   -71.2449 -71.2449 -71.2429 -71.2428 -71.2213 -71.2209 -71.2189 -71.2188
   -71.1999 -71.1999 -71.1974 -71.1965 -71.0626 -71.0611 -71.0598 -71.0587
   -71.0199 -71.0195 -71.0192 -71.0189 -37.5293 -37.5269 -37.5112 -37.5105
   -37.4543 -37.4510 -37.4193 -37.4179 -37.4166 -37.4156 -37.4090 -37.4066
   -37.3949 -37.3906 -37.3900 -37.3872 -37.3831 -37.3748 -37.3710 -37.3571
   -37.3563 -37.3482 -37.3396 -37.3364 -37.3312 -37.3247 -37.3225 -37.3224
   -37.3188 -37.3169 -37.3091 -37.3053 -37.3025 -37.2998 -37.2879 -37.2852
   -37.2815 -37.2766 -37.2751 -37.2734 -37.2678 -37.2671 -37.2601 -37.2592
   -37.2581 -37.2571 -37.2518 -37.2503 -37.2436 -37.2424 -37.2312 -37.2255
   -37.2184 -37.2097 -37.1741 -37.1702 -37.1562 -37.1548 -37.1530 -37.1486
   -37.1057 -37.1036 -37.1012 -37.0961 -37.0954 -37.0938 -37.0829 -37.0814
   -37.0781 -37.0727 -37.0637 -37.0614 -37.0470 -37.0450 -37.0290 -37.0147
   -37.0127 -37.0097 -37.0003 -36.9960 -36.9182 -36.9144 -36.9118 -36.9116
     9.7290  10.3610  11.2991  11.5967  11.6519  11.7302  11.9246  11.9743
    12.1454  12.1986  12.2971  12.3197  12.3909  12.3920  12.4541  12.5155
    12.6437  12.6452  12.6878  12.7280  12.7815  12.8598  12.8851  12.9480
    13.0276  13.0524  13.1215  13.1352  13.1685  13.2234  13.3699  13.4110
    13.4447  13.4811  13.5002  13.5461  13.5595  13.5729  13.5881  13.6262
    13.6411  13.6426  13.6805  13.7231  13.7460  13.7783  13.7938  13.8102
    13.8322  13.8358  13.9149  13.9217  13.9262  13.9502  13.9806  13.9984
    14.0194  14.0765  14.0829  14.1419  14.1516  14.2187  14.2595  14.2871
    14.3178  14.3308  14.3895  14.3900  14.4351  14.5037  14.5150  14.5764
    14.5773  14.6833  14.6888  14.7098  14.7482  14.7745  14.8013  14.8660
    14.8923  14.9295  14.9847  15.0394  15.0442  15.0577  15.0905  15.1308
    15.1932  15.2141  15.2779  15.2909  15.3487  15.3798  15.4006  15.4121
    15.4239  15.5098  15.5207  15.5307  15.5743  15.6065  15.6570  15.6847
    15.7000  15.7616  15.7892  15.8350  15.8646  15.8726  15.9120  15.9324
    15.9400  15.9801  15.9879  16.0355  16.0363  16.0493  16.0660  16.0677
    16.0946  16.1602  16.1619  16.1794  16.2074  16.2267  16.2508  16.3043
    16.3189  16.3487  16.4000  16.4122  16.4299  16.4626  16.4688  16.4966
    16.5176  16.5332  16.5460  16.5769  16.5870  16.6057  16.6479  16.6690
    16.6750  16.7315  16.7625  16.7964  17.1644  17.4490  17.5603  17.6195
    18.1255  18.1627  18.2524  18.3599  18.7390

          k = 0.3333 0.0000 0.0000 ( 33017 PWs)   bands (ev):

   -71.3321 -71.3308 -71.3014 -71.3011 -71.2837 -71.2824 -71.2710 -71.2694
   -71.2465 -71.2465 -71.2442 -71.2441 -71.2200 -71.2190 -71.2166 -71.2165
   -71.1994 -71.1992 -71.1966 -71.1952 -71.0809 -71.0786 -71.0767 -71.0751
   -71.0013 -71.0012 -71.0012 -71.0012 -37.5201 -37.5167 -37.5014 -37.4990
   -37.4634 -37.4564 -37.4540 -37.4540 -37.4491 -37.4328 -37.4322 -37.4292
   -37.4163 -37.4136 -37.4064 -37.3982 -37.3954 -37.3880 -37.3854 -37.3771
   -37.3692 -37.3665 -37.3658 -37.3603 -37.3547 -37.3438 -37.3369 -37.3366
   -37.3303 -37.3270 -37.3171 -37.3161 -37.3155 -37.3064 -37.3032 -37.2986
   -37.2876 -37.2846 -37.2808 -37.2748 -37.2633 -37.2575 -37.2546 -37.2546
   -37.2495 -37.2462 -37.2416 -37.2414 -37.2380 -37.2338 -37.2273 -37.2207
   -37.2138 -37.2134 -37.1823 -37.1768 -37.1642 -37.1613 -37.1609 -37.1494
   -37.1128 -37.1084 -37.0974 -37.0916 -37.0892 -37.0891 -37.0873 -37.0832
   -37.0755 -37.0668 -37.0639 -37.0472 -37.0425 -37.0341 -37.0278 -37.0232
   -37.0175 -37.0142 -36.9939 -36.9931 -36.7980 -36.7965 -36.7950 -36.7935
     8.8941   9.5826  10.6445  11.0414  11.1831  11.5265  11.7382  11.9170
    12.1736  12.1833  12.2511  12.3124  12.4283  12.4623  12.4657  12.5418
    12.5832  12.6668  12.6791  12.7637  12.7834  12.8955  12.9191  13.0291
    13.0378  13.0522  13.1407  13.2306  13.2419  13.2926  13.3555  13.4131
    13.4380  13.4752  13.4940  13.5521  13.5623  13.5943  13.6043  13.6130
    13.6354  13.6637  13.6852  13.7189  13.7333  13.7350  13.7543  13.7599
    13.8084  13.8277  13.8925  13.9413  13.9682  13.9894  13.9933  14.0660
    14.0841  14.1450  14.1970  14.2249  14.2330  14.3008  14.3163  14.3218
    14.3667  14.4920  14.4977  14.5238  14.5292  14.5397  14.5608  14.5694
    14.5887  14.6133  14.6167  14.6450  14.6720  14.6788  14.7651  14.7988
    14.8397  14.9222  14.9455  15.0282  15.0670  15.0980  15.1022  15.1171
    15.1792  15.1809  15.2178  15.2260  15.2393  15.2488  15.2964  15.3218
    15.3243  15.3881  15.4990  15.5213  15.5529  15.5665  15.5909  15.6748
    15.7087  15.7393  15.7974  15.8308  15.8667  15.9030  15.9101  15.9176
    15.9754  15.9765  15.9828  16.0045  16.0695  16.0928  16.0978  16.1148
    16.1549  16.1785  16.1898  16.2402  16.2405  16.2862  16.3381  16.3490
    16.3521  16.3710  16.3842  16.3958  16.3988  16.4259  16.4725  16.5271
    16.5371  16.5730  16.6219  16.6411  16.7094  16.7266  16.7626  16.9875
    17.0579  17.3788  17.4201  17.4740  17.4964  17.8362  18.7552  18.9216
    18.9309  19.0504  19.1377  19.4713  19.6239

          k = 0.3333 0.0000 0.6280 ( 33064 PWs)   bands (ev):

   -71.3305 -71.3299 -71.2993 -71.2992 -71.2804 -71.2791 -71.2737 -71.2723
   -71.2449 -71.2449 -71.2429 -71.2428 -71.2213 -71.2209 -71.2189 -71.2188
   -71.1999 -71.1999 -71.1974 -71.1965 -71.0626 -71.0611 -71.0598 -71.0587
   -71.0199 -71.0195 -71.0192 -71.0189 -37.5293 -37.5269 -37.5112 -37.5105
   -37.4543 -37.4510 -37.4193 -37.4179 -37.4166 -37.4156 -37.4090 -37.4066
   -37.3949 -37.3906 -37.3900 -37.3872 -37.3831 -37.3748 -37.3710 -37.3571
   -37.3563 -37.3482 -37.3396 -37.3364 -37.3312 -37.3247 -37.3225 -37.3224
   -37.3188 -37.3169 -37.3091 -37.3053 -37.3024 -37.2998 -37.2879 -37.2852
   -37.2815 -37.2766 -37.2751 -37.2734 -37.2678 -37.2671 -37.2601 -37.2592
   -37.2581 -37.2571 -37.2518 -37.2503 -37.2436 -37.2424 -37.2312 -37.2255
   -37.2184 -37.2097 -37.1741 -37.1702 -37.1562 -37.1548 -37.1530 -37.1486
   -37.1057 -37.1036 -37.1012 -37.0961 -37.0954 -37.0938 -37.0829 -37.0814
   -37.0781 -37.0727 -37.0637 -37.0614 -37.0470 -37.0450 -37.0290 -37.0147
   -37.0127 -37.0097 -37.0003 -36.9960 -36.9182 -36.9144 -36.9118 -36.9116
     9.7290  10.3610  11.2991  11.5967  11.6519  11.7302  11.9246  11.9743
    12.1454  12.1986  12.2971  12.3197  12.3909  12.3920  12.4541  12.5155
    12.6437  12.6452  12.6878  12.7280  12.7815  12.8598  12.8851  12.9480
    13.0276  13.0524  13.1215  13.1352  13.1685  13.2234  13.3699  13.4110
    13.4447  13.4811  13.5002  13.5461  13.5595  13.5729  13.5881  13.6262
    13.6411  13.6426  13.6805  13.7231  13.7460  13.7783  13.7938  13.8102
    13.8322  13.8358  13.9149  13.9217  13.9262  13.9502  13.9806  13.9984
    14.0194  14.0765  14.0829  14.1419  14.1516  14.2187  14.2595  14.2871
    14.3178  14.3308  14.3895  14.3900  14.4351  14.5037  14.5150  14.5764
    14.5773  14.6833  14.6888  14.7098  14.7482  14.7745  14.8013  14.8660
    14.8923  14.9295  14.9847  15.0394  15.0442  15.0577  15.0905  15.1308
    15.1932  15.2141  15.2779  15.2909  15.3487  15.3798  15.4006  15.4121
    15.4239  15.5098  15.5207  15.5307  15.5743  15.6065  15.6570  15.6847
    15.7000  15.7616  15.7892  15.8350  15.8646  15.8726  15.9120  15.9324
    15.9400  15.9801  15.9879  16.0355  16.0363  16.0493  16.0660  16.0677
    16.0946  16.1602  16.1619  16.1794  16.2074  16.2267  16.2508  16.3043
    16.3189  16.3487  16.4000  16.4122  16.4299  16.4626  16.4688  16.4966
    16.5176  16.5332  16.5460  16.5769  16.5870  16.6057  16.6479  16.6690
    16.6750  16.7315  16.7625  16.7964  17.1644  17.4490  17.5603  17.6195
    18.1255  18.1627  18.2524  18.3599  18.7390

          k = 0.3333 0.0000-0.6280 ( 33064 PWs)   bands (ev):

   -71.3305 -71.3299 -71.2993 -71.2992 -71.2804 -71.2791 -71.2737 -71.2723
   -71.2449 -71.2449 -71.2429 -71.2428 -71.2213 -71.2209 -71.2189 -71.2188
   -71.1999 -71.1999 -71.1974 -71.1965 -71.0626 -71.0611 -71.0598 -71.0587
   -71.0199 -71.0195 -71.0192 -71.0189 -37.5293 -37.5269 -37.5112 -37.5105
   -37.4543 -37.4510 -37.4193 -37.4179 -37.4166 -37.4156 -37.4090 -37.4066
   -37.3949 -37.3906 -37.3900 -37.3872 -37.3831 -37.3748 -37.3710 -37.3571
   -37.3563 -37.3482 -37.3396 -37.3364 -37.3312 -37.3247 -37.3225 -37.3224
   -37.3188 -37.3169 -37.3091 -37.3053 -37.3024 -37.2998 -37.2879 -37.2852
   -37.2815 -37.2766 -37.2751 -37.2734 -37.2678 -37.2671 -37.2601 -37.2592
   -37.2581 -37.2571 -37.2518 -37.2503 -37.2436 -37.2424 -37.2312 -37.2255
   -37.2184 -37.2097 -37.1741 -37.1702 -37.1562 -37.1548 -37.1530 -37.1486
   -37.1057 -37.1036 -37.1012 -37.0961 -37.0954 -37.0938 -37.0829 -37.0814
   -37.0781 -37.0727 -37.0637 -37.0614 -37.0470 -37.0450 -37.0290 -37.0147
   -37.0127 -37.0097 -37.0003 -36.9960 -36.9182 -36.9144 -36.9118 -36.9116
     9.7290  10.3610  11.2991  11.5967  11.6519  11.7302  11.9246  11.9743
    12.1454  12.1986  12.2971  12.3197  12.3909  12.3920  12.4541  12.5155
    12.6437  12.6452  12.6878  12.7280  12.7815  12.8598  12.8851  12.9480
    13.0276  13.0524  13.1215  13.1352  13.1685  13.2234  13.3699  13.4110
    13.4447  13.4811  13.5002  13.5461  13.5595  13.5729  13.5881  13.6262
    13.6411  13.6426  13.6805  13.7231  13.7460  13.7783  13.7938  13.8102
    13.8322  13.8358  13.9149  13.9217  13.9262  13.9502  13.9806  13.9984
    14.0194  14.0765  14.0829  14.1419  14.1516  14.2187  14.2595  14.2871
    14.3178  14.3308  14.3895  14.3900  14.4351  14.5037  14.5150  14.5764
    14.5773  14.6833  14.6888  14.7098  14.7482  14.7745  14.8013  14.8660
    14.8923  14.9295  14.9847  15.0394  15.0442  15.0577  15.0905  15.1308
    15.1932  15.2141  15.2779  15.2909  15.3487  15.3798  15.4006  15.4121
    15.4239  15.5098  15.5207  15.5307  15.5743  15.6065  15.6570  15.6847
    15.7000  15.7616  15.7892  15.8350  15.8646  15.8726  15.9120  15.9324
    15.9400  15.9801  15.9879  16.0355  16.0363  16.0493  16.0660  16.0677
    16.0946  16.1602  16.1619  16.1794  16.2074  16.2267  16.2508  16.3043
    16.3189  16.3487  16.4000  16.4122  16.4299  16.4626  16.4688  16.4966
    16.5176  16.5332  16.5460  16.5769  16.5870  16.6057  16.6479  16.6690
    16.6750  16.7315  16.7625  16.7964  17.1644  17.4490  17.5603  17.6195
    18.1255  18.1627  18.2524  18.3599  18.7390

          k = 0.3333 0.3333 0.0000 ( 33041 PWs)   bands (ev):

   -71.3312 -71.3305 -71.3035 -71.3032 -71.2826 -71.2819 -71.2692 -71.2684
   -71.2466 -71.2461 -71.2454 -71.2451 -71.2195 -71.2189 -71.2168 -71.2166
   -71.1994 -71.1993 -71.1963 -71.1956 -71.0798 -71.0779 -71.0776 -71.0760
   -71.0013 -71.0012 -71.0012 -71.0012 -37.5295 -37.5268 -37.4892 -37.4818
   -37.4579 -37.4562 -37.4552 -37.4546 -37.4407 -37.4319 -37.4303 -37.4242
   -37.4186 -37.4074 -37.4003 -37.3950 -37.3913 -37.3912 -37.3863 -37.3810
   -37.3774 -37.3744 -37.3686 -37.3683 -37.3583 -37.3574 -37.3473 -37.3366
   -37.3359 -37.3260 -37.3193 -37.3165 -37.3131 -37.3062 -37.3046 -37.2947
   -37.2830 -37.2812 -37.2799 -37.2762 -37.2707 -37.2620 -37.2587 -37.2543
   -37.2542 -37.2489 -37.2449 -37.2428 -37.2359 -37.2337 -37.2257 -37.2220
   -37.2157 -37.2154 -37.1756 -37.1666 -37.1665 -37.1628 -37.1522 -37.1381
   -37.1097 -37.1023 -37.0991 -37.0943 -37.0847 -37.0815 -37.0781 -37.0780
   -37.0722 -37.0699 -37.0608 -37.0406 -37.0392 -37.0319 -37.0317 -37.0263
   -37.0251 -37.0182 -37.0064 -37.0030 -36.7973 -36.7958 -36.7957 -36.7943
     9.1292   9.7041   9.9349  10.4587  11.7411  11.9229  11.9459  12.1195
    12.1215  12.1928  12.2108  12.3275  12.3725  12.4451  12.4834  12.5218
    12.5479  12.6767  12.7407  12.7469  12.7831  12.8275  12.8718  12.8996
    12.9517  12.9633  13.2203  13.2461  13.2567  13.3333  13.3476  13.4360
    13.4617  13.4819  13.4890  13.5438  13.5654  13.5991  13.6066  13.6441
    13.6442  13.6459  13.7088  13.7130  13.7144  13.7551  13.7715  13.7795
    13.7857  13.8400  13.8885  13.8930  13.9900  14.0420  14.0483  14.0643
    14.1222  14.1486  14.1674  14.1867  14.1938  14.2520  14.2852  14.3543
    14.3783  14.4422  14.4485  14.4818  14.5377  14.5480  14.5982  14.6052
    14.6234  14.6456  14.6463  14.6538  14.6554  14.7260  14.7540  14.7808
    14.9272  14.9374  14.9576  14.9835  15.0015  15.0017  15.0334  15.1002
    15.1767  15.2015  15.2209  15.2319  15.2568  15.3003  15.3302  15.3421
    15.3884  15.4158  15.4862  15.5018  15.5061  15.5448  15.5858  15.6682
    15.7245  15.7400  15.7641  15.7915  15.8806  15.8998  15.9033  15.9293
    15.9527  16.0219  16.0283  16.0494  16.0634  16.1005  16.1325  16.1614
    16.1759  16.2645  16.2703  16.2816  16.3104  16.3288  16.3436  16.3619
    16.3712  16.3779  16.4057  16.4070  16.4119  16.5008  16.5479  16.5553
    16.5855  16.6023  16.6122  16.6897  16.7034  16.7415  16.8481  16.9076
    17.0498  17.1012  17.1152  17.2716  17.6193  17.7083  18.0788  18.1110
    18.9983  19.0130  19.1434  19.5642  19.6971

          k = 0.3333 0.3333 0.6280 ( 33082 PWs)   bands (ev):

   -71.3298 -71.3295 -71.3010 -71.3009 -71.2802 -71.2796 -71.2714 -71.2706
   -71.2453 -71.2442 -71.2441 -71.2432 -71.2214 -71.2213 -71.2186 -71.2185
   -71.1998 -71.1997 -71.1974 -71.1969 -71.0619 -71.0606 -71.0605 -71.0593
   -71.0197 -71.0194 -71.0193 -71.0190 -37.5395 -37.5366 -37.5001 -37.4922
   -37.4510 -37.4451 -37.4203 -37.4198 -37.4143 -37.4109 -37.4092 -37.4020
   -37.4007 -37.3984 -37.3941 -37.3902 -37.3843 -37.3769 -37.3693 -37.3600
   -37.3510 -37.3470 -37.3460 -37.3441 -37.3418 -37.3328 -37.3265 -37.3263
   -37.3156 -37.3129 -37.3103 -37.3094 -37.2982 -37.2968 -37.2866 -37.2844
   -37.2807 -37.2757 -37.2736 -37.2705 -37.2689 -37.2644 -37.2642 -37.2609
   -37.2560 -37.2542 -37.2514 -37.2504 -37.2393 -37.2383 -37.2301 -37.2272
   -37.2162 -37.2098 -37.1720 -37.1623 -37.1559 -37.1551 -37.1519 -37.1396
   -37.1073 -37.1060 -37.1023 -37.1002 -37.0991 -37.0963 -37.0873 -37.0847
   -37.0676 -37.0667 -37.0595 -37.0592 -37.0498 -37.0431 -37.0391 -37.0271
   -37.0102 -37.0086 -36.9994 -36.9972 -36.9157 -36.9137 -36.9116 -36.9112
     9.9450  10.4646  10.6785  11.1253  11.7541  11.9468  12.0758  12.1285
    12.1304  12.2091  12.3279  12.3356  12.4197  12.4335  12.4487  12.5310
    12.6320  12.6626  12.6954  12.7642  12.8404  12.8615  12.9573  12.9929
    13.0224  13.0252  13.0772  13.0866  13.1727  13.2763  13.3243  13.3854
    13.4115  13.4770  13.4916  13.5195  13.5326  13.5766  13.5797  13.6290
    13.6439  13.6586  13.6731  13.7259  13.7585  13.7718  13.7731  13.8083
    13.8367  13.8403  13.9050  13.9228  13.9609  13.9871  13.9884  14.0267
    14.0717  14.0964  14.1254  14.1532  14.1747  14.1914  14.2059  14.2573
    14.3167  14.3789  14.4221  14.4244  14.4894  14.5182  14.5559  14.5592
    14.5669  14.6283  14.6288  14.6925  14.6953  14.7530  14.7563  14.8589
    14.8962  14.9843  14.9895  15.0153  15.0603  15.0952  15.1588  15.2033
    15.2059  15.2314  15.2491  15.3127  15.3416  15.3930  15.3961  15.4755
    15.4915  15.4921  15.5407  15.5686  15.5822  15.5886  15.6025  15.6454
    15.6707  15.6944  15.7513  15.7715  15.8005  15.8279  15.9206  15.9359
    15.9464  15.9552  15.9884  16.0154  16.0298  16.0492  16.0613  16.0670
    16.1189  16.1263  16.1394  16.1466  16.1662  16.1989  16.2461  16.3032
    16.3034  16.3211  16.3461  16.3641  16.4197  16.4372  16.4590  16.4792
    16.4913  16.5166  16.5312  16.5617  16.6328  16.6492  16.6575  16.7056
    16.7353  16.8224  16.8383  17.0690  17.1821  17.2342  17.4044  17.5745
    18.4049  18.4661  18.6654  18.8221  18.8592

          k = 0.3333 0.3333-0.6280 ( 33082 PWs)   bands (ev):

   -71.3298 -71.3295 -71.3010 -71.3009 -71.2802 -71.2796 -71.2714 -71.2706
   -71.2453 -71.2442 -71.2441 -71.2432 -71.2214 -71.2213 -71.2186 -71.2185
   -71.1998 -71.1997 -71.1974 -71.1969 -71.0619 -71.0606 -71.0605 -71.0593
   -71.0197 -71.0194 -71.0193 -71.0190 -37.5395 -37.5366 -37.5001 -37.4922
   -37.4510 -37.4451 -37.4203 -37.4198 -37.4143 -37.4109 -37.4092 -37.4020
   -37.4007 -37.3984 -37.3941 -37.3902 -37.3843 -37.3769 -37.3693 -37.3600
   -37.3510 -37.3470 -37.3460 -37.3441 -37.3418 -37.3328 -37.3265 -37.3263
   -37.3156 -37.3129 -37.3103 -37.3094 -37.2982 -37.2968 -37.2866 -37.2844
   -37.2807 -37.2757 -37.2736 -37.2705 -37.2689 -37.2644 -37.2642 -37.2609
   -37.2560 -37.2542 -37.2514 -37.2504 -37.2393 -37.2383 -37.2301 -37.2272
   -37.2162 -37.2098 -37.1720 -37.1623 -37.1559 -37.1551 -37.1519 -37.1396
   -37.1073 -37.1060 -37.1023 -37.1002 -37.0991 -37.0963 -37.0873 -37.0847
   -37.0676 -37.0667 -37.0595 -37.0592 -37.0498 -37.0431 -37.0391 -37.0271
   -37.0102 -37.0086 -36.9994 -36.9972 -36.9157 -36.9137 -36.9116 -36.9112
     9.9450  10.4646  10.6785  11.1253  11.7541  11.9468  12.0758  12.1285
    12.1304  12.2091  12.3279  12.3356  12.4197  12.4335  12.4487  12.5310
    12.6320  12.6626  12.6954  12.7642  12.8404  12.8615  12.9573  12.9929
    13.0224  13.0252  13.0772  13.0866  13.1727  13.2763  13.3243  13.3854
    13.4115  13.4770  13.4916  13.5195  13.5326  13.5766  13.5797  13.6290
    13.6439  13.6586  13.6731  13.7259  13.7585  13.7718  13.7731  13.8083
    13.8367  13.8403  13.9050  13.9228  13.9609  13.9871  13.9884  14.0267
    14.0717  14.0964  14.1254  14.1532  14.1747  14.1914  14.2059  14.2573
    14.3167  14.3789  14.4221  14.4244  14.4894  14.5182  14.5559  14.5592
    14.5669  14.6283  14.6288  14.6925  14.6953  14.7530  14.7563  14.8589
    14.8962  14.9843  14.9895  15.0153  15.0603  15.0952  15.1588  15.2033
    15.2059  15.2314  15.2491  15.3127  15.3416  15.3930  15.3961  15.4755
    15.4915  15.4921  15.5407  15.5686  15.5822  15.5886  15.6025  15.6454
    15.6707  15.6944  15.7513  15.7715  15.8005  15.8279  15.9206  15.9359
    15.9464  15.9552  15.9884  16.0154  16.0298  16.0492  16.0613  16.0670
    16.1189  16.1263  16.1394  16.1466  16.1662  16.1989  16.2461  16.3032
    16.3034  16.3211  16.3461  16.3641  16.4197  16.4372  16.4590  16.4792
    16.4913  16.5166  16.5312  16.5617  16.6328  16.6492  16.6575  16.7056
    16.7353  16.8224  16.8383  17.0690  17.1821  17.2342  17.4044  17.5745
    18.4049  18.4661  18.6653  18.8221  18.8592

          k = 0.3333-0.3333 0.0000 ( 33041 PWs)   bands (ev):

   -71.3312 -71.3305 -71.3035 -71.3032 -71.2826 -71.2819 -71.2692 -71.2684
   -71.2466 -71.2461 -71.2454 -71.2451 -71.2195 -71.2189 -71.2168 -71.2166
   -71.1994 -71.1993 -71.1963 -71.1956 -71.0798 -71.0779 -71.0776 -71.0760
   -71.0013 -71.0012 -71.0012 -71.0012 -37.5295 -37.5268 -37.4892 -37.4818
   -37.4579 -37.4562 -37.4552 -37.4546 -37.4407 -37.4319 -37.4303 -37.4242
   -37.4186 -37.4074 -37.4003 -37.3950 -37.3913 -37.3912 -37.3862 -37.3810
   -37.3774 -37.3744 -37.3686 -37.3683 -37.3583 -37.3574 -37.3473 -37.3366
   -37.3359 -37.3260 -37.3193 -37.3165 -37.3131 -37.3062 -37.3046 -37.2947
   -37.2830 -37.2812 -37.2799 -37.2762 -37.2707 -37.2620 -37.2587 -37.2543
   -37.2542 -37.2489 -37.2449 -37.2428 -37.2359 -37.2337 -37.2257 -37.2220
   -37.2157 -37.2154 -37.1756 -37.1666 -37.1665 -37.1628 -37.1522 -37.1381
   -37.1097 -37.1023 -37.0991 -37.0943 -37.0847 -37.0815 -37.0781 -37.0780
   -37.0722 -37.0699 -37.0608 -37.0406 -37.0392 -37.0319 -37.0317 -37.0263
   -37.0251 -37.0182 -37.0064 -37.0030 -36.7973 -36.7958 -36.7957 -36.7943
     9.1292   9.7041   9.9349  10.4587  11.7411  11.9229  11.9459  12.1195
    12.1215  12.1928  12.2109  12.3275  12.3725  12.4451  12.4834  12.5218
    12.5479  12.6767  12.7407  12.7469  12.7831  12.8275  12.8718  12.8996
    12.9517  12.9633  13.2203  13.2461  13.2567  13.3333  13.3476  13.4360
    13.4617  13.4819  13.4890  13.5438  13.5654  13.5991  13.6066  13.6441
    13.6442  13.6459  13.7088  13.7130  13.7144  13.7551  13.7715  13.7795
    13.7857  13.8400  13.8885  13.8930  13.9900  14.0420  14.0483  14.0643
    14.1222  14.1486  14.1674  14.1867  14.1938  14.2520  14.2852  14.3543
    14.3783  14.4422  14.4485  14.4818  14.5377  14.5480  14.5982  14.6052
    14.6234  14.6456  14.6463  14.6538  14.6554  14.7260  14.7540  14.7808
    14.9272  14.9374  14.9576  14.9835  15.0015  15.0017  15.0334  15.1002
    15.1767  15.2015  15.2209  15.2319  15.2568  15.3003  15.3302  15.3421
    15.3884  15.4158  15.4862  15.5018  15.5061  15.5448  15.5858  15.6682
    15.7245  15.7400  15.7641  15.7915  15.8806  15.8998  15.9033  15.9293
    15.9527  16.0219  16.0283  16.0494  16.0634  16.1005  16.1325  16.1614
    16.1759  16.2645  16.2703  16.2816  16.3104  16.3288  16.3436  16.3619
    16.3712  16.3779  16.4057  16.4070  16.4119  16.5008  16.5479  16.5553
    16.5855  16.6023  16.6122  16.6897  16.7034  16.7415  16.8481  16.9076
    17.0498  17.1012  17.1152  17.2716  17.6193  17.7083  18.0788  18.1110
    18.9983  19.0130  19.1434  19.5642  19.6970

          k = 0.3333-0.3333 0.6280 ( 33082 PWs)   bands (ev):

   -71.3298 -71.3295 -71.3010 -71.3009 -71.2802 -71.2796 -71.2714 -71.2706
   -71.2453 -71.2442 -71.2441 -71.2432 -71.2214 -71.2213 -71.2186 -71.2185
   -71.1998 -71.1997 -71.1974 -71.1969 -71.0619 -71.0606 -71.0604 -71.0593
   -71.0197 -71.0194 -71.0193 -71.0190 -37.5395 -37.5366 -37.5001 -37.4922
   -37.4510 -37.4451 -37.4203 -37.4198 -37.4143 -37.4108 -37.4092 -37.4020
   -37.4007 -37.3984 -37.3941 -37.3902 -37.3843 -37.3769 -37.3693 -37.3600
   -37.3510 -37.3470 -37.3460 -37.3441 -37.3418 -37.3328 -37.3265 -37.3263
   -37.3156 -37.3129 -37.3103 -37.3094 -37.2982 -37.2968 -37.2866 -37.2844
   -37.2807 -37.2757 -37.2736 -37.2705 -37.2689 -37.2644 -37.2642 -37.2609
   -37.2560 -37.2542 -37.2514 -37.2504 -37.2393 -37.2383 -37.2301 -37.2272
   -37.2162 -37.2098 -37.1720 -37.1623 -37.1559 -37.1551 -37.1519 -37.1396
   -37.1073 -37.1060 -37.1023 -37.1002 -37.0991 -37.0963 -37.0873 -37.0847
   -37.0676 -37.0667 -37.0595 -37.0592 -37.0498 -37.0431 -37.0391 -37.0271
   -37.0102 -37.0086 -36.9994 -36.9972 -36.9157 -36.9138 -36.9116 -36.9112
     9.9450  10.4646  10.6785  11.1253  11.7541  11.9468  12.0758  12.1285
    12.1304  12.2091  12.3279  12.3356  12.4197  12.4335  12.4487  12.5310
    12.6320  12.6626  12.6954  12.7642  12.8404  12.8615  12.9573  12.9929
    13.0224  13.0252  13.0772  13.0866  13.1727  13.2763  13.3243  13.3854
    13.4115  13.4770  13.4916  13.5195  13.5326  13.5766  13.5797  13.6290
    13.6439  13.6586  13.6731  13.7259  13.7585  13.7718  13.7731  13.8083
    13.8367  13.8403  13.9050  13.9228  13.9609  13.9871  13.9884  14.0267
    14.0717  14.0964  14.1254  14.1533  14.1747  14.1914  14.2059  14.2573
    14.3167  14.3789  14.4221  14.4244  14.4894  14.5182  14.5559  14.5592
    14.5669  14.6283  14.6288  14.6925  14.6953  14.7530  14.7563  14.8589
    14.8962  14.9843  14.9895  15.0153  15.0603  15.0952  15.1588  15.2033
    15.2059  15.2314  15.2491  15.3127  15.3416  15.3930  15.3961  15.4755
    15.4915  15.4921  15.5407  15.5686  15.5822  15.5886  15.6025  15.6454
    15.6707  15.6944  15.7513  15.7715  15.8005  15.8279  15.9206  15.9359
    15.9464  15.9552  15.9884  16.0154  16.0298  16.0492  16.0613  16.0670
    16.1189  16.1263  16.1394  16.1466  16.1662  16.1989  16.2461  16.3032
    16.3034  16.3211  16.3461  16.3641  16.4197  16.4372  16.4590  16.4792
    16.4913  16.5166  16.5312  16.5617  16.6328  16.6492  16.6575  16.7056
    16.7353  16.8224  16.8383  17.0690  17.1821  17.2342  17.4044  17.5745
    18.4049  18.4661  18.6653  18.8221  18.8592

          k = 0.3333-0.3333-0.6280 ( 33082 PWs)   bands (ev):

   -71.3298 -71.3295 -71.3010 -71.3009 -71.2802 -71.2796 -71.2714 -71.2706
   -71.2453 -71.2442 -71.2441 -71.2432 -71.2214 -71.2213 -71.2186 -71.2185
   -71.1998 -71.1997 -71.1974 -71.1969 -71.0619 -71.0606 -71.0604 -71.0593
   -71.0197 -71.0194 -71.0193 -71.0190 -37.5395 -37.5366 -37.5001 -37.4922
   -37.4510 -37.4451 -37.4203 -37.4198 -37.4143 -37.4108 -37.4092 -37.4020
   -37.4007 -37.3984 -37.3941 -37.3902 -37.3843 -37.3769 -37.3693 -37.3600
   -37.3510 -37.3470 -37.3460 -37.3441 -37.3418 -37.3328 -37.3265 -37.3263
   -37.3156 -37.3129 -37.3103 -37.3094 -37.2982 -37.2968 -37.2866 -37.2844
   -37.2807 -37.2757 -37.2736 -37.2705 -37.2689 -37.2644 -37.2642 -37.2609
   -37.2560 -37.2542 -37.2514 -37.2504 -37.2393 -37.2383 -37.2301 -37.2272
   -37.2162 -37.2098 -37.1720 -37.1623 -37.1559 -37.1551 -37.1519 -37.1396
   -37.1073 -37.1060 -37.1023 -37.1002 -37.0991 -37.0963 -37.0873 -37.0847
   -37.0676 -37.0667 -37.0595 -37.0592 -37.0498 -37.0431 -37.0391 -37.0271
   -37.0102 -37.0086 -36.9994 -36.9972 -36.9157 -36.9138 -36.9116 -36.9112
     9.9450  10.4646  10.6785  11.1253  11.7541  11.9468  12.0758  12.1285
    12.1304  12.2091  12.3279  12.3356  12.4197  12.4335  12.4487  12.5310
    12.6320  12.6626  12.6954  12.7642  12.8404  12.8615  12.9573  12.9929
    13.0224  13.0252  13.0772  13.0866  13.1727  13.2763  13.3243  13.3854
    13.4115  13.4770  13.4916  13.5195  13.5326  13.5766  13.5797  13.6290
    13.6439  13.6586  13.6731  13.7259  13.7585  13.7718  13.7731  13.8083
    13.8367  13.8403  13.9050  13.9228  13.9609  13.9871  13.9884  14.0267
    14.0717  14.0964  14.1254  14.1533  14.1747  14.1914  14.2059  14.2573
    14.3167  14.3789  14.4221  14.4244  14.4894  14.5182  14.5559  14.5592
    14.5669  14.6283  14.6288  14.6925  14.6953  14.7530  14.7563  14.8589
    14.8962  14.9843  14.9895  15.0153  15.0603  15.0952  15.1588  15.2033
    15.2059  15.2314  15.2491  15.3127  15.3416  15.3930  15.3961  15.4755
    15.4915  15.4921  15.5407  15.5686  15.5822  15.5886  15.6025  15.6454
    15.6707  15.6944  15.7513  15.7715  15.8005  15.8279  15.9206  15.9359
    15.9464  15.9552  15.9884  16.0154  16.0298  16.0492  16.0613  16.0670
    16.1189  16.1263  16.1394  16.1466  16.1662  16.1989  16.2461  16.3032
    16.3034  16.3211  16.3461  16.3641  16.4197  16.4372  16.4590  16.4792
    16.4913  16.5166  16.5312  16.5617  16.6328  16.6492  16.6575  16.7056
    16.7353  16.8224  16.8383  17.0690  17.1821  17.2342  17.4044  17.5745
    18.4049  18.4661  18.6654  18.8221  18.8592

 ------ SPIN DOWN ----------


          k = 0.0000 0.0000 0.0000 ( 32999 PWs)   bands (ev):

   -68.4578 -68.4514 -68.4514 -68.4465 -68.3582 -68.3582 -68.3582 -68.3582
   -68.3197 -68.3183 -68.3183 -68.3138 -68.3019 -68.2946 -68.2929 -68.2929
   -68.2548 -68.2515 -68.2482 -68.2429 -68.2228 -68.2191 -68.2183 -68.2183
   -68.2114 -68.2114 -68.1844 -68.1844 -35.0144 -34.9837 -34.9837 -34.9595
   -34.6773 -34.6773 -34.6693 -34.6587 -34.5925 -34.5919 -34.5872 -34.5792
   -34.5792 -34.5743 -34.5724 -34.5527 -34.5526 -34.5335 -34.5327 -34.5327
   -34.5117 -34.4884 -34.4884 -34.4830 -34.4830 -34.4750 -34.4730 -34.4685
   -34.4469 -34.4412 -34.4412 -34.4365 -34.4365 -34.4353 -34.4310 -34.4258
   -34.4257 -34.4150 -34.4146 -34.3879 -34.3879 -34.3751 -34.3684 -34.3575
   -34.3562 -34.3562 -34.3538 -34.3500 -34.3413 -34.3413 -34.3324 -34.3313
   -34.3298 -34.3289 -34.3289 -34.3256 -34.3214 -34.3202 -34.3176 -34.2971
   -34.2955 -34.2955 -34.2911 -34.2911 -34.2905 -34.2887 -34.2832 -34.2798
   -34.2798 -34.2773 -34.2727 -34.2727 -34.2686 -34.2596 -34.2577 -34.2577
   -34.2526 -34.2430 -34.2355 -34.2355 -34.1768 -34.1768 -34.1688 -34.1688
     8.8392  10.7090  10.7090  10.8648  11.4333  12.2774  12.5587  12.5587
    12.8679  13.3294  13.6429  13.7362  13.7837  13.7837  13.9218  13.9218
    13.9461  13.9878  14.1567  14.2629  14.2629  14.5393  14.5393  14.6557
    14.7366  14.8918  14.9120  14.9120  14.9181  15.0897  15.1340  15.3122
    15.3122  15.3310  15.3391  15.3391  15.3621  15.3621  15.3858  15.4666
    15.5205  15.5705  15.6342  15.6342  15.6365  15.6864  15.6864  15.6889
    15.6895  15.7371  15.7406  15.7534  15.8219  15.8531  15.8599  15.8599
    15.9162  15.9162  15.9331  15.9331  15.9688  15.9907  16.0908  16.1097
    16.1153  16.1573  16.1573  16.2038  16.2401  16.2435  16.2593  16.2593
    16.7435  16.7690  16.7690  16.7763  16.8004  16.8481  16.9337  17.1543
    17.2124  17.2124  17.2863  17.2863  17.3102  17.3211  17.4488  17.4488
    17.5613  17.7037  17.7526  17.7526  17.7734  17.8260  17.8260  17.8407
    17.8407  17.8437  17.9141  17.9147  18.0481  18.1284  18.2340  18.2369
    18.2369  18.2751  18.2751  18.2918  18.3718  18.3718  18.3955  18.4628
    18.4798  18.4866  18.5931  18.7399  18.7399  18.7658  18.7748  18.7748
    18.7765  18.7899  18.8450  18.8682  18.8857  18.8857  18.8867  19.0218
    19.0370  19.0370  19.1114  19.1114  19.1573  19.1573  19.2128  19.2128
    19.2159  19.2263  19.2706  19.3101  19.3408  19.3408  19.3489  19.3873
    19.3873  19.5043  19.5464  19.6658  19.6658  19.7220  20.5480  20.5627
    20.5627  20.8423  20.9052  20.9065  21.0234

          k = 0.0000 0.0000 0.6280 ( 33090 PWs)   bands (ev):

   -68.4351 -68.4298 -68.4298 -68.4256 -68.3849 -68.3818 -68.3818 -68.3800
   -68.3161 -68.3161 -68.3134 -68.3112 -68.2984 -68.2948 -68.2912 -68.2912
   -68.2559 -68.2541 -68.2485 -68.2459 -68.2222 -68.2203 -68.2196 -68.2196
   -68.2122 -68.2122 -68.1846 -68.1846 -34.8794 -34.8446 -34.8446 -34.8169
   -34.6535 -34.6535 -34.6504 -34.6397 -34.6243 -34.6065 -34.6038 -34.5945
   -34.5903 -34.5903 -34.5892 -34.5593 -34.5593 -34.5524 -34.5434 -34.5402
   -34.5402 -34.5244 -34.4989 -34.4970 -34.4886 -34.4830 -34.4830 -34.4767
   -34.4610 -34.4580 -34.4580 -34.4433 -34.4390 -34.4324 -34.4324 -34.4158
   -34.4083 -34.4042 -34.4042 -34.4013 -34.4013 -34.3972 -34.3778 -34.3763
   -34.3763 -34.3724 -34.3714 -34.3572 -34.3517 -34.3517 -34.3505 -34.3474
   -34.3459 -34.3459 -34.3321 -34.3277 -34.3266 -34.3154 -34.3073 -34.3054
   -34.3045 -34.3043 -34.3043 -34.2955 -34.2946 -34.2946 -34.2929 -34.2906
   -34.2906 -34.2835 -34.2745 -34.2728 -34.2728 -34.2716 -34.2635 -34.2573
   -34.2482 -34.2482 -34.2454 -34.2454 -34.1803 -34.1803 -34.1685 -34.1685
     9.7018  11.4627  11.4627  11.5677  11.9232  12.1051  12.9007  13.0492
    13.0492  13.1001  13.1714  13.1714  13.2544  13.3187  13.7273  13.8472
    13.8472  14.0276  14.1123  14.2505  14.2505  14.4455  14.5152  14.5152
    14.6220  14.6562  14.8097  14.8097  14.9404  15.0565  15.1729  15.1729
    15.2551  15.3074  15.3505  15.4194  15.4256  15.4360  15.4360  15.4524
    15.4524  15.5036  15.5330  15.5400  15.5400  15.6034  15.6287  15.6357
    15.6746  15.6746  15.7377  15.7422  15.7473  15.7473  15.8438  15.8477
    15.9031  15.9031  15.9330  15.9690  15.9690  16.0267  16.0624  16.2049
    16.2195  16.2252  16.2253  16.2379  16.2555  16.3949  16.3949  16.5872
    16.6420  16.6420  16.6493  16.6761  16.8059  16.8146  16.9668  17.0606
    17.0606  17.1504  17.1541  17.2983  17.3163  17.3263  17.3263  17.5475
    17.5475  17.5897  17.5897  17.6733  17.7136  17.7303  17.7303  17.7914
    18.0720  18.0955  18.0955  18.1002  18.1008  18.2299  18.2708  18.2708
    18.2792  18.3180  18.4374  18.4374  18.4709  18.4858  18.5011  18.5077
    18.5077  18.5924  18.5924  18.5975  18.6270  18.6281  18.6554  18.6554
    18.7027  18.7077  18.8084  18.8323  18.8549  18.8549  18.8954  18.9177
    18.9177  18.9704  18.9704  18.9842  19.0354  19.0641  19.0779  19.1019
    19.1019  19.1665  19.1665  19.1683  19.1894  19.1894  19.2398  19.2997
    19.3054  19.3054  19.3103  19.3995  19.5517  19.6293  19.6293  19.6608
    19.7339  19.7339  19.7939  20.6089  20.6089

          k = 0.0000 0.3333 0.0000 ( 33017 PWs)   bands (ev):

   -68.4562 -68.4531 -68.4502 -68.4477 -68.3582 -68.3582 -68.3582 -68.3582
   -68.3198 -68.3190 -68.3167 -68.3146 -68.2998 -68.2959 -68.2934 -68.2931
   -68.2531 -68.2502 -68.2485 -68.2444 -68.2278 -68.2261 -68.2152 -68.2151
   -68.2081 -68.2077 -68.1856 -68.1856 -35.0068 -34.9914 -34.9775 -34.9654
   -34.6769 -34.6768 -34.6583 -34.6367 -34.6200 -34.5953 -34.5876 -34.5820
   -34.5781 -34.5724 -34.5616 -34.5587 -34.5562 -34.5549 -34.5481 -34.5230
   -34.5184 -34.5030 -34.4983 -34.4859 -34.4837 -34.4819 -34.4740 -34.4666
   -34.4591 -34.4446 -34.4414 -34.4407 -34.4282 -34.4148 -34.4095 -34.4053
   -34.3999 -34.3979 -34.3978 -34.3863 -34.3743 -34.3695 -34.3693 -34.3650
   -34.3596 -34.3592 -34.3590 -34.3512 -34.3448 -34.3418 -34.3405 -34.3350
   -34.3310 -34.3300 -34.3298 -34.3293 -34.3286 -34.3268 -34.3267 -34.3069
   -34.3042 -34.2995 -34.2956 -34.2923 -34.2905 -34.2893 -34.2846 -34.2795
   -34.2769 -34.2743 -34.2717 -34.2692 -34.2660 -34.2653 -34.2531 -34.2458
   -34.2383 -34.2355 -34.2354 -34.2312 -34.1854 -34.1842 -34.1713 -34.1710
     9.0832   9.7839  10.9228  11.3232  11.5316  11.9016  12.2860  13.1599
    13.2656  13.5258  13.6175  13.6243  13.7476  13.8024  13.8809  13.9359
    14.0137  14.0436  14.0876  14.1692  14.3219  14.3696  14.4559  14.6435
    14.7029  14.8247  14.8398  14.8839  14.9155  14.9879  15.0934  15.1949
    15.2141  15.2256  15.4003  15.4351  15.4487  15.4809  15.4832  15.4841
    15.5380  15.5560  15.5626  15.5814  15.6106  15.6292  15.6503  15.6823
    15.6845  15.7389  15.7473  15.7830  15.7838  15.7880  15.7991  15.8666
    15.8689  15.8763  15.8766  16.0125  16.0276  16.0584  16.0799  16.1014
    16.1617  16.1618  16.2461  16.2676  16.2853  16.2956  16.3093  16.6649
    16.7008  16.7175  16.7632  16.7703  16.8088  16.8632  16.9651  16.9737
    16.9932  17.1984  17.2341  17.3430  17.4282  17.4288  17.5334  17.5344
    17.5384  17.5982  17.6529  17.6676  17.7474  17.7702  17.7836  17.8080
    17.8588  17.8668  17.9460  18.0091  18.0501  18.0995  18.1397  18.1763
    18.2077  18.2832  18.3293  18.3823  18.4044  18.4229  18.4632  18.4774
    18.4906  18.5124  18.5719  18.6310  18.6691  18.7218  18.7586  18.7619
    18.7834  18.8098  18.8272  18.8397  18.8877  18.9093  18.9794  19.0062
    19.0308  19.0325  19.0434  19.1168  19.1432  19.1591  19.1739  19.1861
    19.1904  19.1929  19.2159  19.2473  19.3152  19.3341  19.3930  19.4143
    19.4725  19.6456  19.6688  19.6827  19.6984  19.8336  20.1416  20.4874
    20.5739  20.6438  20.7251  20.9155  20.9708

          k = 0.0000 0.3333 0.6280 ( 33064 PWs)   bands (ev):

   -68.4339 -68.4312 -68.4288 -68.4267 -68.3841 -68.3825 -68.3813 -68.3804
   -68.3165 -68.3165 -68.3125 -68.3115 -68.2971 -68.2951 -68.2916 -68.2915
   -68.2540 -68.2523 -68.2495 -68.2472 -68.2285 -68.2277 -68.2162 -68.2161
   -68.2084 -68.2082 -68.1859 -68.1859 -34.8716 -34.8543 -34.8381 -34.8242
   -34.6614 -34.6610 -34.6402 -34.6362 -34.6216 -34.6189 -34.5990 -34.5948
   -34.5920 -34.5784 -34.5697 -34.5660 -34.5547 -34.5518 -34.5493 -34.5370
   -34.5222 -34.5179 -34.5176 -34.5051 -34.4938 -34.4931 -34.4802 -34.4791
   -34.4660 -34.4622 -34.4472 -34.4444 -34.4419 -34.4339 -34.4312 -34.4275
   -34.4158 -34.4137 -34.4031 -34.3992 -34.3947 -34.3916 -34.3793 -34.3774
   -34.3723 -34.3669 -34.3648 -34.3579 -34.3511 -34.3507 -34.3493 -34.3445
   -34.3412 -34.3349 -34.3299 -34.3267 -34.3249 -34.3236 -34.3168 -34.3134
   -34.3122 -34.3068 -34.3062 -34.3027 -34.3004 -34.2965 -34.2927 -34.2916
   -34.2903 -34.2898 -34.2729 -34.2711 -34.2644 -34.2612 -34.2539 -34.2537
   -34.2502 -34.2487 -34.2342 -34.2328 -34.1869 -34.1868 -34.1716 -34.1714
     9.9320  10.5900  11.6514  11.9874  12.0943  12.1962  12.5003  12.5505
    12.8663  13.2293  13.3043  13.4614  13.6253  13.6499  13.7281  13.7433
    14.0386  14.0481  14.1274  14.1521  14.1812  14.3117  14.4239  14.5147
    14.6198  14.6844  14.7859  14.8230  14.8998  14.9601  15.1614  15.2191
    15.2877  15.2965  15.3319  15.3570  15.3875  15.4072  15.4228  15.4614
    15.4895  15.5102  15.5525  15.5592  15.5652  15.6281  15.6369  15.6597
    15.6964  15.7303  15.7320  15.7734  15.7928  15.8000  15.8318  15.8378
    15.8842  15.9155  15.9409  16.0086  16.0738  16.0771  16.0789  16.1004
    16.1172  16.1432  16.2242  16.2512  16.2967  16.3335  16.4425  16.5564
    16.5670  16.6055  16.6548  16.6939  16.7447  16.8013  16.8411  16.9645
    17.0726  17.0927  17.2694  17.2952  17.3451  17.4000  17.4241  17.5271
    17.5302  17.5856  17.6323  17.6588  17.6845  17.8036  17.8854  17.9207
    17.9789  18.0152  18.0686  18.0916  18.1420  18.1743  18.2448  18.2604
    18.2685  18.2709  18.3491  18.3892  18.4429  18.4503  18.4774  18.5180
    18.5240  18.5554  18.5678  18.6033  18.6282  18.6503  18.6560  18.6993
    18.7039  18.7120  18.7367  18.7482  18.7805  18.8301  18.8304  18.8851
    18.9560  18.9584  19.0086  19.0621  19.0687  19.0708  19.0838  19.1079
    19.1232  19.1236  19.1260  19.1732  19.1840  19.2149  19.2225  19.2597
    19.2791  19.2922  19.3051  19.3457  19.4967  19.6402  19.7322  19.7666
    20.0700  20.0971  20.2521  20.2833  20.5796

          k = 0.0000 0.3333-0.6280 ( 33064 PWs)   bands (ev):

   -68.4339 -68.4312 -68.4288 -68.4267 -68.3841 -68.3825 -68.3813 -68.3804
   -68.3165 -68.3165 -68.3125 -68.3115 -68.2971 -68.2951 -68.2916 -68.2915
   -68.2540 -68.2523 -68.2495 -68.2472 -68.2285 -68.2277 -68.2162 -68.2161
   -68.2084 -68.2082 -68.1859 -68.1859 -34.8716 -34.8543 -34.8381 -34.8242
   -34.6614 -34.6610 -34.6402 -34.6362 -34.6216 -34.6189 -34.5990 -34.5948
   -34.5920 -34.5784 -34.5697 -34.5660 -34.5547 -34.5518 -34.5493 -34.5370
   -34.5222 -34.5179 -34.5176 -34.5051 -34.4938 -34.4931 -34.4802 -34.4791
   -34.4660 -34.4622 -34.4472 -34.4444 -34.4419 -34.4339 -34.4312 -34.4275
   -34.4158 -34.4137 -34.4031 -34.3992 -34.3947 -34.3916 -34.3793 -34.3774
   -34.3723 -34.3669 -34.3648 -34.3579 -34.3511 -34.3507 -34.3493 -34.3445
   -34.3412 -34.3349 -34.3299 -34.3267 -34.3249 -34.3236 -34.3168 -34.3134
   -34.3122 -34.3068 -34.3062 -34.3027 -34.3004 -34.2965 -34.2927 -34.2916
   -34.2903 -34.2898 -34.2729 -34.2711 -34.2644 -34.2612 -34.2539 -34.2537
   -34.2502 -34.2487 -34.2342 -34.2328 -34.1869 -34.1868 -34.1716 -34.1714
     9.9320  10.5900  11.6514  11.9874  12.0943  12.1962  12.5003  12.5505
    12.8663  13.2293  13.3043  13.4614  13.6253  13.6499  13.7281  13.7433
    14.0386  14.0481  14.1274  14.1521  14.1812  14.3117  14.4239  14.5147
    14.6198  14.6844  14.7859  14.8230  14.8998  14.9601  15.1614  15.2191
    15.2877  15.2965  15.3319  15.3570  15.3875  15.4072  15.4228  15.4614
    15.4895  15.5102  15.5525  15.5592  15.5652  15.6281  15.6369  15.6597
    15.6964  15.7303  15.7320  15.7734  15.7928  15.8000  15.8319  15.8378
    15.8842  15.9155  15.9409  16.0086  16.0738  16.0771  16.0789  16.1004
    16.1172  16.1432  16.2242  16.2512  16.2967  16.3335  16.4425  16.5564
    16.5670  16.6055  16.6548  16.6939  16.7447  16.8013  16.8411  16.9645
    17.0726  17.0927  17.2694  17.2952  17.3451  17.4000  17.4241  17.5271
    17.5302  17.5856  17.6323  17.6588  17.6845  17.8036  17.8854  17.9207
    17.9789  18.0152  18.0686  18.0916  18.1420  18.1743  18.2448  18.2604
    18.2685  18.2709  18.3491  18.3892  18.4429  18.4503  18.4774  18.5180
    18.5240  18.5554  18.5678  18.6033  18.6282  18.6503  18.6560  18.6993
    18.7039  18.7120  18.7367  18.7482  18.7805  18.8301  18.8304  18.8851
    18.9560  18.9584  19.0086  19.0621  19.0687  19.0708  19.0838  19.1079
    19.1232  19.1236  19.1260  19.1732  19.1840  19.2149  19.2225  19.2597
    19.2791  19.2922  19.3051  19.3457  19.4967  19.6402  19.7322  19.7666
    20.0700  20.0971  20.2521  20.2833  20.5796

          k = 0.3333 0.0000 0.0000 ( 33017 PWs)   bands (ev):

[...]
    15.4780  15.4816  15.5111  15.5386  15.5503  15.5776  15.6194  15.6413
    15.6939  15.7093  15.7330  15.7432  15.7616  15.7672  15.7890  15.8386
    15.8712  15.9137  15.9167  15.9618  16.0328  16.0417  16.0849  16.1106
    16.1315  16.1501  16.1594  16.1919  16.2374  16.2967  16.3716  16.4159
    16.4465  16.4706  16.6235  16.6746  16.6996  16.7122  16.8529  16.9163
    17.0189  17.1471  17.2146  17.2403  17.3040  17.4222  17.4266  17.4981
    17.5065  17.5705  17.6157  17.6624  17.7083  17.7551  17.8478  17.8859
    17.9481  18.0031  18.0793  18.1179  18.1262  18.1539  18.1864  18.1993
    18.2386  18.2740  18.2929  18.3198  18.3438  18.3731  18.3831  18.4143
    18.4634  18.4995  18.5327  18.5356  18.5584  18.5919  18.6167  18.6699
    18.6710  18.6882  18.7120  18.7413  18.7467  18.7957  18.8436  18.8469
    18.8638  18.9006  18.9079  18.9708  19.0072  19.0420  19.0534  19.0708
    19.0802  19.1420  19.1497  19.1862  19.1944  19.2504  19.2611  19.2798
    19.2965  19.3150  19.3180  19.4322  19.4408  19.4995  19.6030  19.7451
    20.1300  20.3063  20.3966  20.4486  20.6335

          k = 0.3337 0.3337-0.6261 ( 33094 PWs)   bands (ev):

   -68.4648 -68.4622 -68.4619 -68.4597 -68.4178 -68.4163 -68.4160 -68.4150
   -68.3617 -68.3617 -68.3560 -68.3556 -68.3378 -68.3364 -68.3336 -68.3333
   -68.2907 -68.2893 -68.2878 -68.2862 -68.2616 -68.2602 -68.2525 -68.2511
   -68.2328 -68.2323 -68.2096 -68.2096 -34.8864 -34.8705 -34.8669 -34.8524
   -34.7080 -34.7054 -34.6775 -34.6697 -34.6514 -34.6480 -34.6446 -34.6407
   -34.6332 -34.6213 -34.5976 -34.5902 -34.5838 -34.5822 -34.5790 -34.5703
   -34.5561 -34.5527 -34.5470 -34.5443 -34.5376 -34.5238 -34.5176 -34.5152
   -34.5143 -34.4959 -34.4878 -34.4793 -34.4783 -34.4710 -34.4709 -34.4667
   -34.4612 -34.4559 -34.4428 -34.4408 -34.4297 -34.4255 -34.4212 -34.4163
   -34.4058 -34.4007 -34.3966 -34.3947 -34.3910 -34.3812 -34.3776 -34.3760
   -34.3729 -34.3711 -34.3667 -34.3653 -34.3615 -34.3572 -34.3533 -34.3515
   -34.3511 -34.3434 -34.3395 -34.3360 -34.3323 -34.3313 -34.3272 -34.3261
   -34.3252 -34.3240 -34.3021 -34.3011 -34.2942 -34.2916 -34.2889 -34.2838
   -34.2782 -34.2737 -34.2718 -34.2435 -34.2427 -34.2185 -34.2081 -34.2035
    10.1310  10.6638  10.9344  11.4235  12.2121  12.5488  12.7834  12.8068
    12.9793  13.1138  13.2722  13.2861  13.6260  13.7243  13.8377  13.8571
    13.9713  14.0083  14.0894  14.1222  14.1548  14.2376  14.4003  14.4870
    14.5277  14.5948  14.6850  14.7010  14.8976  14.9943  15.0820  15.1663
    15.2023  15.2750  15.3302  15.3347  15.3760  15.4166  15.4297  15.4630
    15.4780  15.4816  15.5111  15.5386  15.5503  15.5776  15.6194  15.6413
    15.6939  15.7093  15.7330  15.7432  15.7616  15.7672  15.7890  15.8386
    15.8712  15.9137  15.9167  15.9617  16.0328  16.0417  16.0849  16.1106
    16.1315  16.1501  16.1594  16.1919  16.2374  16.2967  16.3716  16.4159
    16.4465  16.4706  16.6235  16.6746  16.6996  16.7122  16.8529  16.9163
    17.0189  17.1471  17.2146  17.2403  17.3040  17.4222  17.4266  17.4981
    17.5065  17.5705  17.6157  17.6624  17.7083  17.7551  17.8478  17.8859
    17.9481  18.0031  18.0793  18.1179  18.1262  18.1539  18.1864  18.1993
    18.2386  18.2740  18.2929  18.3198  18.3438  18.3731  18.3831  18.4143
    18.4634  18.4995  18.5327  18.5356  18.5584  18.5919  18.6167  18.6699
    18.6710  18.6882  18.7120  18.7413  18.7467  18.7957  18.8436  18.8469
    18.8638  18.9006  18.9079  18.9708  19.0072  19.0420  19.0534  19.0708
    19.0802  19.1420  19.1497  19.1862  19.1944  19.2504  19.2611  19.2798
    19.2965  19.3150  19.3180  19.4322  19.4408  19.4995  19.6030  19.7451
    20.1300  20.3063  20.3966  20.4486  20.6335

          k = 0.3337-0.3337-0.0000 ( 33079 PWs)   bands (ev):

   -68.4863 -68.4833 -68.4830 -68.4804 -68.3928 -68.3928 -68.3928 -68.3928
   -68.3645 -68.3641 -68.3601 -68.3590 -68.3401 -68.3370 -68.3362 -68.3351
   -68.2901 -68.2887 -68.2853 -68.2837 -68.2603 -68.2590 -68.2515 -68.2502
   -68.2327 -68.2322 -68.2093 -68.2092 -35.0167 -35.0024 -35.0004 -34.9877
   -34.7172 -34.7144 -34.6781 -34.6649 -34.6627 -34.6414 -34.6233 -34.6197
   -34.6111 -34.6107 -34.6093 -34.6053 -34.5987 -34.5849 -34.5819 -34.5692
   -34.5662 -34.5540 -34.5445 -34.5436 -34.5357 -34.5337 -34.5004 -34.4879
   -34.4788 -34.4666 -34.4665 -34.4555 -34.4546 -34.4455 -34.4437 -34.4427
   -34.4384 -34.4342 -34.4324 -34.4272 -34.4246 -34.4144 -34.4131 -34.4109
   -34.4050 -34.4014 -34.3971 -34.3906 -34.3802 -34.3795 -34.3678 -34.3669
   -34.3611 -34.3610 -34.3605 -34.3593 -34.3589 -34.3584 -34.3538 -34.3521
   -34.3455 -34.3438 -34.3391 -34.3340 -34.3228 -34.3197 -34.3123 -34.3111
   -34.3085 -34.3069 -34.3018 -34.2998 -34.2998 -34.2950 -34.2830 -34.2748
   -34.2723 -34.2595 -34.2594 -34.2445 -34.2425 -34.2194 -34.2049 -34.2018
     9.3022   9.8755  10.1553  10.6938  12.2498  12.5400  12.7828  12.8130
    13.2925  13.4496  13.5537  13.5585  13.6037  13.6084  13.9161  13.9449
    14.0580  14.1026  14.1940  14.2077  14.2534  14.2633  14.4606  14.4797
    14.5775  14.6544  14.8154  14.8981  14.9118  14.9250  15.1085  15.2240
    15.2350  15.2783  15.3259  15.3476  15.3986  15.3998  15.4390  15.4684
    15.4788  15.4833  15.4905  15.5223  15.5387  15.5624  15.6026  15.6047
    15.6077  15.6471  15.6739  15.6789  15.7266  15.7390  15.7490  15.8018
    15.8099  15.8291  15.9413  16.0434  16.0494  16.1312  16.1411  16.1623
    16.1689  16.2169  16.2981  16.3106  16.3267  16.4218  16.5445  16.5898
    16.6072  16.6648  16.7060  16.7090  16.7752  16.7849  16.8007  16.8815
    16.9388  17.0206  17.0922  17.2291  17.3048  17.3519  17.3680  17.4461
    17.4833  17.4840  17.7056  17.7100  17.7416  17.7730  17.8139  17.8200
    17.8494  17.8556  17.8824  17.8825  18.0812  18.1193  18.1481  18.1594
    18.1720  18.2211  18.3165  18.3427  18.4004  18.4205  18.4514  18.4516
    18.5067  18.5163  18.5662  18.6008  18.6485  18.7020  18.7146  18.7153
    18.7253  18.8152  18.8507  18.8527  18.8592  18.8995  18.9292  18.9537
    18.9945  19.0054  19.0387  19.0440  19.0747  19.0914  19.0978  19.1001
    19.1610  19.2127  19.2277  19.2623  19.2781  19.3155  19.3472  19.3479
    19.4130  19.4148  19.4332  19.5001  19.6929  19.7232  19.9626  20.0967
    20.5411  20.6405  20.6782  20.7445  21.0080

          k = 0.3337-0.3337 0.6261 ( 33094 PWs)   bands (ev):

   -68.4648 -68.4622 -68.4619 -68.4597 -68.4178 -68.4163 -68.4160 -68.4150
   -68.3617 -68.3617 -68.3560 -68.3556 -68.3378 -68.3364 -68.3336 -68.3333
   -68.2907 -68.2893 -68.2878 -68.2862 -68.2616 -68.2602 -68.2525 -68.2511
   -68.2328 -68.2323 -68.2096 -68.2096 -34.8864 -34.8705 -34.8669 -34.8524
   -34.7080 -34.7054 -34.6775 -34.6697 -34.6514 -34.6480 -34.6446 -34.6407
   -34.6332 -34.6213 -34.5976 -34.5902 -34.5838 -34.5822 -34.5790 -34.5703
   -34.5561 -34.5527 -34.5470 -34.5443 -34.5376 -34.5238 -34.5176 -34.5152
   -34.5143 -34.4959 -34.4878 -34.4793 -34.4783 -34.4710 -34.4709 -34.4667
   -34.4612 -34.4559 -34.4428 -34.4408 -34.4297 -34.4255 -34.4212 -34.4163
   -34.4058 -34.4008 -34.3966 -34.3947 -34.3910 -34.3812 -34.3776 -34.3760
   -34.3729 -34.3711 -34.3667 -34.3653 -34.3615 -34.3572 -34.3533 -34.3515
   -34.3511 -34.3434 -34.3395 -34.3360 -34.3323 -34.3313 -34.3272 -34.3261
   -34.3252 -34.3240 -34.3021 -34.3011 -34.2942 -34.2916 -34.2889 -34.2838
   -34.2782 -34.2737 -34.2718 -34.2435 -34.2427 -34.2185 -34.2081 -34.2035
    10.1310  10.6638  10.9344  11.4235  12.2121  12.5488  12.7834  12.8068
    12.9793  13.1138  13.2722  13.2861  13.6260  13.7243  13.8377  13.8571
    13.9713  14.0083  14.0894  14.1222  14.1548  14.2376  14.4003  14.4870
    14.5277  14.5948  14.6850  14.7010  14.8976  14.9943  15.0820  15.1663
    15.2022  15.2750  15.3302  15.3347  15.3760  15.4166  15.4297  15.4629
    15.4780  15.4816  15.5111  15.5386  15.5503  15.5776  15.6194  15.6413
    15.6939  15.7093  15.7330  15.7433  15.7616  15.7672  15.7890  15.8386
    15.8712  15.9137  15.9167  15.9618  16.0328  16.0417  16.0849  16.1106
    16.1315  16.1501  16.1594  16.1919  16.2374  16.2967  16.3716  16.4159
    16.4465  16.4706  16.6235  16.6746  16.6996  16.7122  16.8529  16.9163
    17.0189  17.1471  17.2146  17.2403  17.3040  17.4222  17.4266  17.4981
    17.5065  17.5705  17.6158  17.6624  17.7083  17.7551  17.8478  17.8859
    17.9481  18.0031  18.0793  18.1179  18.1262  18.1539  18.1864  18.1993
    18.2386  18.2740  18.2929  18.3198  18.3438  18.3731  18.3831  18.4143
    18.4634  18.4995  18.5326  18.5356  18.5584  18.5919  18.6167  18.6699
    18.6710  18.6882  18.7120  18.7413  18.7467  18.7957  18.8436  18.8469
    18.8638  18.9006  18.9079  18.9708  19.0072  19.0420  19.0534  19.0708
    19.0802  19.1420  19.1497  19.1862  19.1944  19.2504  19.2611  19.2798
    19.2965  19.3150  19.3180  19.4322  19.4408  19.4995  19.6030  19.7451
    20.1300  20.3063  20.3966  20.4486  20.6335

          k = 0.3337-0.3337-0.6261 ( 33094 PWs)   bands (ev):

   -68.4648 -68.4622 -68.4619 -68.4597 -68.4178 -68.4163 -68.4160 -68.4150
   -68.3617 -68.3617 -68.3560 -68.3556 -68.3378 -68.3364 -68.3336 -68.3333
   -68.2907 -68.2893 -68.2878 -68.2862 -68.2616 -68.2602 -68.2525 -68.2511
   -68.2328 -68.2323 -68.2096 -68.2096 -34.8864 -34.8705 -34.8669 -34.8524
   -34.7080 -34.7054 -34.6775 -34.6697 -34.6514 -34.6480 -34.6446 -34.6407
   -34.6332 -34.6213 -34.5976 -34.5902 -34.5838 -34.5822 -34.5790 -34.5703
   -34.5561 -34.5527 -34.5470 -34.5443 -34.5376 -34.5238 -34.5176 -34.5152
   -34.5143 -34.4959 -34.4878 -34.4793 -34.4783 -34.4710 -34.4709 -34.4667
   -34.4612 -34.4559 -34.4428 -34.4408 -34.4297 -34.4255 -34.4212 -34.4163
   -34.4058 -34.4008 -34.3966 -34.3947 -34.3910 -34.3812 -34.3776 -34.3760
   -34.3729 -34.3711 -34.3667 -34.3653 -34.3615 -34.3572 -34.3533 -34.3515
   -34.3511 -34.3434 -34.3395 -34.3360 -34.3323 -34.3313 -34.3272 -34.3261
   -34.3252 -34.3240 -34.3021 -34.3011 -34.2942 -34.2916 -34.2889 -34.2838
   -34.2782 -34.2737 -34.2718 -34.2435 -34.2427 -34.2185 -34.2081 -34.2035
    10.1310  10.6638  10.9344  11.4235  12.2121  12.5488  12.7834  12.8068
    12.9793  13.1138  13.2722  13.2861  13.6260  13.7243  13.8377  13.8571
    13.9713  14.0083  14.0894  14.1222  14.1548  14.2376  14.4003  14.4870
    14.5277  14.5948  14.6850  14.7010  14.8976  14.9943  15.0820  15.1663
    15.2022  15.2750  15.3302  15.3347  15.3760  15.4166  15.4297  15.4629
    15.4780  15.4816  15.5111  15.5386  15.5503  15.5776  15.6194  15.6413
    15.6939  15.7093  15.7330  15.7433  15.7616  15.7672  15.7890  15.8386
    15.8712  15.9137  15.9167  15.9618  16.0328  16.0417  16.0849  16.1106
    16.1315  16.1501  16.1594  16.1919  16.2374  16.2967  16.3716  16.4159
    16.4465  16.4706  16.6235  16.6746  16.6996  16.7122  16.8529  16.9163
    17.0189  17.1471  17.2146  17.2403  17.3040  17.4222  17.4266  17.4981
    17.5065  17.5705  17.6158  17.6624  17.7083  17.7551  17.8478  17.8859
    17.9481  18.0031  18.0793  18.1179  18.1262  18.1539  18.1864  18.1993
    18.2386  18.2740  18.2929  18.3198  18.3438  18.3731  18.3831  18.4143
    18.4634  18.4995  18.5326  18.5356  18.5584  18.5919  18.6167  18.6699
    18.6710  18.6882  18.7120  18.7413  18.7467  18.7957  18.8436  18.8469
    18.8638  18.9006  18.9079  18.9708  19.0072  19.0420  19.0534  19.0708
    19.0802  19.1420  19.1497  19.1862  19.1944  19.2504  19.2611  19.2798
    19.2965  19.3150  19.3180  19.4322  19.4408  19.4995  19.6030  19.7451
    20.1300  20.3063  20.3966  20.4486  20.6335

     the Fermi energy is    16.8532 ev

!    total energy              =   -9219.24340054 Ry

     total all-electron energy =    -71275.546395 Ry
     estimated scf accuracy    <          4.7E-11 Ry
     smearing contrib. (-TS)   =      -0.01784614 Ry
     internal energy E=F+TS    =   -9219.22555441 Ry

     The total energy is F=E-TS. E is the sum of the following terms:
     one-electron contribution =   -3371.62434202 Ry
     hartree contribution      =    1959.80090644 Ry
     xc contribution           =    -975.17141160 Ry
     ewald contribution        =   -4699.98942607 Ry
     one-center paw contrib.   =   -2132.24128116 Ry

     total magnetization       =    66.77 Bohr mag/cell
     absolute magnetization    =    70.24 Bohr mag/cell

     convergence has been achieved in  68 iterations

     negative rho (up, down):  0.000E+00 6.537E-04

     Forces acting on atoms (cartesian axes, Ry/au):

     atom    1 type  1   force =     0.00000749    0.00000380    0.00003213
     atom    2 type  1   force =    -0.00000850   -0.00000598    0.00003308
     atom    3 type  1   force =     0.00000468   -0.00000460    0.00003385
     atom    4 type  1   force =    -0.00000246    0.00000980    0.00003365
     atom    5 type  1   force =    -0.00000846   -0.00000591   -0.00003321
     atom    6 type  1   force =     0.00000747    0.00000377   -0.00003212
     atom    7 type  1   force =    -0.00000251    0.00000989   -0.00003359
     atom    8 type  1   force =     0.00000464   -0.00000453   -0.00003393
     atom    9 type  1   force =     0.00003445    0.00001943    0.00000005
     atom   10 type  1   force =    -0.00003781   -0.00002115   -0.00000004
     atom   11 type  1   force =    -0.00003549    0.00002958    0.00000006
     atom   12 type  1   force =     0.00003669   -0.00002704    0.00000000
     atom   13 type  1   force =     0.00003025    0.00003325   -0.00000002
     atom   14 type  1   force =    -0.00003103   -0.00003717   -0.00000001
     atom   15 type  1   force =     0.00001721   -0.00003492    0.00000004
     atom   16 type  1   force =    -0.00001733    0.00003940   -0.00000007
     atom   17 type  1   force =     0.00000918    0.00005841    0.00000003
     atom   18 type  1   force =    -0.00001040   -0.00005749   -0.00000001
     atom   19 type  1   force =    -0.00001387    0.00005693   -0.00000002
     atom   20 type  1   force =     0.00001577   -0.00006056    0.00000003
     atom   21 type  1   force =     0.00005877    0.00001022    0.00000004
     atom   22 type  1   force =    -0.00005762   -0.00001721    0.00000003
     atom   23 type  1   force =     0.00005684   -0.00001014   -0.00000003
     atom   24 type  1   force =    -0.00006099    0.00001126    0.00000008
     atom   25 type  1   force =    -0.00000858   -0.00000318    0.00000006
     atom   26 type  1   force =     0.00001382    0.00000469   -0.00000004
     atom   27 type  1   force =    -0.00000416    0.00001079   -0.00000002
     atom   28 type  1   force =     0.00000194   -0.00001134    0.00000001

     Total force =     0.000232     Total SCF correction =     0.000042
     SCF correction compared to forces is large: reduce conv_thr to get better values


     Computing stress (Cartesian axis) and pressure


     negative rho (up, down):  0.000E+00 6.537E-04
          total   stress  (Ry/bohr**3)                   (kbar)     P=        0.02
  -0.00000036   0.00000000  -0.00000000           -0.05        0.00       -0.00
   0.00000000  -0.00000036  -0.00000000            0.00       -0.05       -0.00
  -0.00000000  -0.00000000   0.00000111           -0.00       -0.00        0.16


     init_run     :    137.49s CPU    139.92s WALL (       2 calls)
     electrons    :  83920.19s CPU  85197.80s WALL (      14 calls)
     update_pot   :     67.71s CPU     68.46s WALL (      12 calls)
     forces       :    497.86s CPU    510.44s WALL (      14 calls)
     stress       :   4123.15s CPU   4145.26s WALL (      14 calls)

     Called by init_run:
     wfcinit      :    122.62s CPU    124.28s WALL (       2 calls)
     potinit      :      5.84s CPU      6.09s WALL (       2 calls)
     hinit0       :      4.02s CPU      4.12s WALL (       2 calls)

     Called by electrons:
     c_bands      :  74500.73s CPU  75312.98s WALL (     536 calls)
     sum_band     :   7578.63s CPU   7869.97s WALL (     536 calls)
     v_of_rho     :    542.89s CPU    564.94s WALL (     547 calls)
     newd         :    669.26s CPU    814.47s WALL (     547 calls)
     PAW_pot      :    508.02s CPU    509.86s WALL (     559 calls)
     mix_rho      :    109.49s CPU    114.99s WALL (     536 calls)

     Called by c_bands:
     init_us_2    :    803.20s CPU    818.92s WALL (   31192 calls)
     cegterg      :  73058.39s CPU  73849.82s WALL (   15008 calls)

     Called by *egterg:
     cdiaghg      :  10753.28s CPU  10905.97s WALL (   43504 calls)
     h_psi        :  24721.44s CPU  24981.81s WALL (   43980 calls)
     s_psi        :   7757.11s CPU   7779.28s WALL (   43980 calls)
     g_psi        :     72.36s CPU     73.10s WALL (   28916 calls)

     Called by h_psi:
     h_psi:calbec :   7883.31s CPU   8004.32s WALL (   43980 calls)
     vloc_psi     :   8348.64s CPU   8420.42s WALL (   43980 calls)
     add_vuspsi   :   7866.85s CPU   7899.47s WALL (   43980 calls)

     General routines
     calbec       :  11804.75s CPU  11986.18s WALL (   61284 calls)
     fft          :    394.38s CPU    423.35s WALL (   14225 calls)
     ffts         :     11.22s CPU     12.03s WALL (    2166 calls)
     fftw         :   9431.12s CPU   9511.69s WALL (22158596 calls)
     interpolate  :     38.57s CPU     41.18s WALL (    1094 calls)

     Parallel routines
     fft_scatt_xy :    965.72s CPU    974.17s WALL (22174987 calls)
     fft_scatt_yz :   2820.56s CPU   2872.00s WALL (22174987 calls)

     PWSCF        :   1d 0h41m CPU   1d 1h 3m WALL


   This run was terminated on:   0:30:18  29May2022            

=------------------------------------------------------------------------------=
   JOB DONE.
=------------------------------------------------------------------------------=
Note: The following floating-point exceptions are signalling: IEEE_UNDERFLOW_FLAG IEEE_DENORMAL
Note: The following floating-point exceptions are signalling: IEEE_UNDERFLOW_FLAG IEEE_DENORMAL
Note: The following floating-point exceptions are signalling: IEEE_UNDERFLOW_FLAG IEEE_DENORMAL
Note: The following floating-point exceptions are signalling: IEEE_UNDERFLOW_FLAG IEEE_DENORMAL
Note: The following floating-point exceptions are signalling: IEEE_UNDERFLOW_FLAG IEEE_DENORMAL
Note: The following floating-point exceptions are signalling: IEEE_UNDERFLOW_FLAG IEEE_DENORMAL
Note: The following floating-point exceptions are signalling: IEEE_UNDERFLOW_FLAG IEEE_DENORMAL
Note: The following floating-point exceptions are signalling: IEEE_UNDERFLOW_FLAG IEEE_DENORMAL
Note: The following floating-point exceptions are signalling: IEEE_UNDERFLOW_FLAG IEEE_DENORMAL
Note: The following floating-point exceptions are signalling: IEEE_INVALID_FLAG IEEE_UNDERFLOW_FLAG IEEE_DENORMAL
Note: The following floating-point exceptions are signalling: IEEE_UNDERFLOW_FLAG IEEE_DENORMAL
Note: The following floating-point exceptions are signalling: IEEE_UNDERFLOW_FLAG IEEE_DENORMAL
Note: The following floating-point exceptions are signalling: IEEE_UNDERFLOW_FLAG IEEE_DENORMAL
Note: The following floating-point exceptions are signalling: IEEE_UNDERFLOW_FLAG IEEE_DENORMAL
Note: The following floating-point exceptions are signalling: IEEE_UNDERFLOW_FLAG IEEE_DENORMAL
Note: The following floating-point exceptions are signalling: IEEE_UNDERFLOW_FLAG IEEE_DENORMAL
Note: The following floating-point exceptions are signalling: IEEE_UNDERFLOW_FLAG IEEE_DENORMAL
Note: The following floating-point exceptions are signalling: IEEE_UNDERFLOW_FLAG IEEE_DENORMAL
Note: The following floating-point exceptions are signalling: IEEE_UNDERFLOW_FLAG IEEE_DENORMAL
Note: The following floating-point exceptions are signalling: IEEE_UNDERFLOW_FLAG IEEE_DENORMAL
Note: The following floating-point exceptions are signalling: IEEE_UNDERFLOW_FLAG IEEE_DENORMAL
Note: The following floating-point exceptions are signalling: IEEE_UNDERFLOW_FLAG IEEE_DENORMAL
Note: The following floating-point exceptions are signalling: IEEE_INVALID_FLAG IEEE_UNDERFLOW_FLAG IEEE_DENORMAL
Note: The following floating-point exceptions are signalling: IEEE_INVALID_FLAG IEEE_UNDERFLOW_FLAG IEEE_DENORMAL
