 # Co4 Fe4
 
           8  atoms
           2  atom types
 
      0.000000000000       4.371264000000  xlo xhi
      0.000000000000       4.371264000000  ylo yhi
      0.000000000000       4.371264000000  zlo zhi
 
Masses
 
            1   58.93319500             # Co
            2   55.84500000             # Fe
 
Atoms # atomic
 
         1    1        0.000000000000       0.000000000000       0.000000000000
         2    2        2.185632000000       2.185632000000       2.185632000000
         3    1        4.371264000000       2.185632000000       2.185632000000
         4    2        2.185632000000       0.000000000000       0.000000000000
         5    1        2.185632000000       2.185632000000       0.000000000000
         6    2        4.371264000000       4.371264000000       2.185632000000
         7    1        2.185632000000       4.371264000000       2.185632000000
         8    2        4.371264000000       2.185632000000       0.000000000000
