
     Program PWSCF v.6.7MaX starts on 18Mar2022 at 18:44:15 

     This program is part of the open-source Quantum ESPRESSO suite
     for quantum simulation of materials; please cite
         "P. Giannozzi et al., J. Phys.:Condens. Matter 21 395502 (2009);
         "P. Giannozzi et al., J. Phys.:Condens. Matter 29 465901 (2017);
          URL http://www.quantum-espresso.org", 
     in publications or presentations arising from this work. More details at
     http://www.quantum-espresso.org/quote

     Parallel version (MPI), running on    16 processors

     MPI processes distributed on     1 nodes
     R & G space division:  proc/nbgrp/npool/nimage =      16
     Reading input from Ten-5-B1-CoFe.in

     Current dimensions of program PWSCF are:
     Max number of different atomic species (ntypx) = 10
     Max number of k-points (npk) =  40000
     Max angular momentum in pseudopotentials (lmaxx) =  3
     file Fe.pbe-spn-kjpaw_psl.0.2.1.UPF: wavefunction(s)  3D renormalized

     Subspace diagonalization in iterative solution of the eigenvalue problem:
     a serial algorithm will be used

     Found symmetry operation: I + (  0.0000  0.5000 -0.5000)
     This is a supercell, fractional translations are disabled

     Parallelization info
     --------------------
     sticks:   dense  smooth     PW     G-vecs:    dense   smooth      PW
     Min         438     146     41                27630     5310     805
     Max         439     147     42                27635     5315     808
     Sum        7017    2337    665               442135    84967   12893



     bravais-lattice index     =            0
     lattice parameter (alat)  =       9.0349  a.u.
     unit-cell volume          =     737.5168 (a.u.)^3
     number of atoms/cell      =            8
     number of atomic types    =            2
     number of electrons       =       132.00
     number of Kohn-Sham states=           79
     kinetic-energy cutoff     =      90.0000  Ry
     charge density cutoff     =    1080.0000  Ry
     scf convergence threshold =      1.0E-08
     mixing beta               =       0.2000
     number of iterations used =            8  plain     mixing
     Exchange-correlation= SLA  PW   PBE  PBE
                           (   1   4   3   4   0   0   0)

     celldm(1)=   9.034913  celldm(2)=   0.000000  celldm(3)=   0.000000
     celldm(4)=   0.000000  celldm(5)=   0.000000  celldm(6)=   0.000000

     crystal axes: (cart. coord. in units of alat)
               a(1) = (   1.000000   0.000000   0.000000 )  
               a(2) = (   0.000000   1.000000   0.000000 )  
               a(3) = (   0.000000   0.000000   1.000000 )  

     reciprocal axes: (cart. coord. in units 2 pi/alat)
               b(1) = (  1.000000  0.000000  0.000000 )  
               b(2) = (  0.000000  1.000000  0.000000 )  
               b(3) = (  0.000000  0.000000  1.000000 )  


     PseudoPot. # 1 for Fe read from file:
     /opt/QEpot/SSSP_efficiency_pseudos/Fe.pbe-spn-kjpaw_psl.0.2.1.UPF
     MD5 check sum: e86618425769142926afa95317d90200
     Pseudo is Projector augmented-wave + core cor, Zval = 16.0
     Generated using "atomic" code by A. Dal Corso  v.5.0.99 svn rev. 10869
     Shape of augmentation charge: PSQ
     Using radial grid of 1191 points,  6 beta functions with: 
                l(1) =   0
                l(2) =   0
                l(3) =   1
                l(4) =   1
                l(5) =   2
                l(6) =   2
     Q(r) pseudized with 0 coefficients 


     PseudoPot. # 2 for Co read from file:
     /opt/QEpot/SSSP_efficiency_pseudos/Co_pbe_v1.2.uspp.F.UPF
     MD5 check sum: 5f91765df6ddd3222702df6e7b74a16d
     Pseudo is Ultrasoft + core correction, Zval = 17.0
     Generated by new atomic code, or converted to UPF format
     Using radial grid of  863 points,  6 beta functions with: 
                l(1) =   0
                l(2) =   0
                l(3) =   1
                l(4) =   1
                l(5) =   2
                l(6) =   2
     Q(r) pseudized with  8 coefficients,  rinner =    1.200   1.200   1.200
                                                       1.200   1.200

     atomic species   valence    mass     pseudopotential
        Fe            16.00    55.84500     Fe( 1.00)
        Co            17.00    58.93300     Co( 1.00)

     Starting magnetic structure 
     atomic species   magnetization
        Fe           0.000
        Co           0.000

     No symmetry found



   Cartesian axes

     site n.     atom                  positions (alat units)
         1           Fe  tau(   1) = (   0.0000000   0.5000000   0.0000000  )
         2           Co  tau(   2) = (   0.5000000   0.0000000   0.5000000  )
         3           Fe  tau(   3) = (   0.0000000   0.0000000   0.5000000  )
         4           Co  tau(   4) = (   0.5000000   0.5000000   0.0000000  )
         5           Fe  tau(   5) = (   0.5000000   0.0000000   0.0000000  )
         6           Co  tau(   6) = (   0.0000000   0.5000000   0.5000000  )
         7           Fe  tau(   7) = (   0.5000000   0.5000000   0.5000000  )
         8           Co  tau(   8) = (   0.0000000   0.0000000   0.0000000  )

     number of k points=   112  Gaussian smearing, width (Ry)=  0.0100

     Number of k-points >= 100: set verbosity='high' to print them.

     Dense  grid:   442135 G-vectors     FFT dimensions: (  96,  96,  96)

     Smooth grid:    84967 G-vectors     FFT dimensions: (  60,  60,  60)

     Estimated max dynamical RAM per process >     293.86 MB

     Estimated total dynamical RAM >       4.59 GB

     Check: negative core charge=   -0.000011
     Generating pointlists ...
     new r_m :   0.2063 (alat units)  1.8635 (a.u.) for type    1
     new r_m :   0.2063 (alat units)  1.8635 (a.u.) for type    2

     Initial potential from superposition of free atoms

     starting charge  127.99822, renormalised to  132.00000
     Starting wfcs are  104 randomized atomic wfcs
     Checking if some PAW data can be deallocated... 

     total cpu time spent up to now is       19.3 secs

     Self-consistent Calculation

     iteration #  1     ecut=    90.00 Ry     beta= 0.20
     Davidson diagonalization with overlap
     ethr =  1.00E-02,  avg # of iterations =  2.0

     total cpu time spent up to now is       62.9 secs

     total energy              =   -2504.98218556 Ry
     estimated scf accuracy    <      26.79966764 Ry

     total magnetization       =    -0.00 Bohr mag/cell
     absolute magnetization    =     0.01 Bohr mag/cell

     iteration #  2     ecut=    90.00 Ry     beta= 0.20
     Davidson diagonalization with overlap
     ethr =  1.00E-02,  avg # of iterations =  3.5

     total cpu time spent up to now is      110.9 secs

     total energy              =   -2507.99474125 Ry
     estimated scf accuracy    <      50.25308955 Ry

     total magnetization       =    -0.00 Bohr mag/cell
     absolute magnetization    =     0.01 Bohr mag/cell

     iteration #  3     ecut=    90.00 Ry     beta= 0.20
     Davidson diagonalization with overlap
     ethr =  1.00E-02,  avg # of iterations =  2.1

     total cpu time spent up to now is      151.1 secs

     total energy              =   -2510.17852054 Ry
     estimated scf accuracy    <       0.19505066 Ry

     total magnetization       =     0.00 Bohr mag/cell
     absolute magnetization    =     0.03 Bohr mag/cell

     iteration #  4     ecut=    90.00 Ry     beta= 0.20
     Davidson diagonalization with overlap
     ethr =  1.48E-04,  avg # of iterations =  5.7

     total cpu time spent up to now is      213.2 secs

     total energy              =   -2510.31386098 Ry
     estimated scf accuracy    <       1.74925528 Ry

     total magnetization       =    -0.00 Bohr mag/cell
     absolute magnetization    =     0.01 Bohr mag/cell

     iteration #  5     ecut=    90.00 Ry     beta= 0.20
     Davidson diagonalization with overlap
     ethr =  1.48E-04,  avg # of iterations =  1.0

     total cpu time spent up to now is      247.0 secs

     total energy              =   -2510.28181842 Ry
     estimated scf accuracy    <       0.80454617 Ry

     total magnetization       =    -0.00 Bohr mag/cell
     absolute magnetization    =     0.01 Bohr mag/cell

     iteration #  6     ecut=    90.00 Ry     beta= 0.20
     Davidson diagonalization with overlap
     ethr =  1.48E-04,  avg # of iterations =  1.2

     total cpu time spent up to now is      281.5 secs

     total energy              =   -2510.29086019 Ry
     estimated scf accuracy    <       0.10279792 Ry

     total magnetization       =    -0.00 Bohr mag/cell
     absolute magnetization    =     0.02 Bohr mag/cell

     iteration #  7     ecut=    90.00 Ry     beta= 0.20
     Davidson diagonalization with overlap
     ethr =  7.79E-05,  avg # of iterations =  2.4

     total cpu time spent up to now is      321.1 secs

     total energy              =   -2510.32240772 Ry
     estimated scf accuracy    <       0.78028047 Ry

     total magnetization       =    -0.00 Bohr mag/cell
     absolute magnetization    =     0.02 Bohr mag/cell

     iteration #  8     ecut=    90.00 Ry     beta= 0.20
     Davidson diagonalization with overlap
     ethr =  7.79E-05,  avg # of iterations =  1.0

     total cpu time spent up to now is      355.0 secs

     total energy              =   -2510.30470261 Ry
     estimated scf accuracy    <       0.67095382 Ry

     total magnetization       =    -0.00 Bohr mag/cell
     absolute magnetization    =     0.02 Bohr mag/cell

     iteration #  9     ecut=    90.00 Ry     beta= 0.20
     Davidson diagonalization with overlap
     ethr =  7.79E-05,  avg # of iterations =  1.0

     total cpu time spent up to now is      388.8 secs

     total energy              =   -2510.30407441 Ry
     estimated scf accuracy    <       0.23920163 Ry

     total magnetization       =    -0.00 Bohr mag/cell
     absolute magnetization    =     0.02 Bohr mag/cell

     iteration # 10     ecut=    90.00 Ry     beta= 0.20
     Davidson diagonalization with overlap
     ethr =  7.79E-05,  avg # of iterations =  1.0

     total cpu time spent up to now is      422.5 secs

     total energy              =   -2510.30232982 Ry
     estimated scf accuracy    <       0.16226939 Ry

     total magnetization       =    -0.00 Bohr mag/cell
     absolute magnetization    =     0.03 Bohr mag/cell

     iteration # 11     ecut=    90.00 Ry     beta= 0.20
     Davidson diagonalization with overlap
     ethr =  7.79E-05,  avg # of iterations =  1.0

     total cpu time spent up to now is      456.3 secs

     total energy              =   -2510.29967985 Ry
     estimated scf accuracy    <       0.09976599 Ry

     total magnetization       =    -0.00 Bohr mag/cell
     absolute magnetization    =     0.05 Bohr mag/cell

     iteration # 12     ecut=    90.00 Ry     beta= 0.20
     Davidson diagonalization with overlap
     ethr =  7.56E-05,  avg # of iterations =  1.0

     total cpu time spent up to now is      490.0 secs

     total energy              =   -2510.29998966 Ry
     estimated scf accuracy    <       0.00998607 Ry

     total magnetization       =    -0.00 Bohr mag/cell
     absolute magnetization    =     0.06 Bohr mag/cell

     iteration # 13     ecut=    90.00 Ry     beta= 0.20
     Davidson diagonalization with overlap
     ethr =  7.57E-06,  avg # of iterations =  2.0

     total cpu time spent up to now is      527.2 secs

     total energy              =   -2510.30053832 Ry
     estimated scf accuracy    <       0.00062396 Ry

     total magnetization       =    -0.01 Bohr mag/cell
     absolute magnetization    =     0.07 Bohr mag/cell

     iteration # 14     ecut=    90.00 Ry     beta= 0.20
     Davidson diagonalization with overlap
     ethr =  4.73E-07,  avg # of iterations =  3.0

     total cpu time spent up to now is      570.4 secs

     total energy              =   -2510.30017424 Ry
     estimated scf accuracy    <       0.02698367 Ry

     total magnetization       =    -0.01 Bohr mag/cell
     absolute magnetization    =     0.08 Bohr mag/cell

     iteration # 15     ecut=    90.00 Ry     beta= 0.20
     Davidson diagonalization with overlap
     ethr =  4.73E-07,  avg # of iterations =  2.3

     total cpu time spent up to now is      610.3 secs

     total energy              =   -2510.30015487 Ry
     estimated scf accuracy    <       0.03359108 Ry

     total magnetization       =    -0.01 Bohr mag/cell
     absolute magnetization    =     0.09 Bohr mag/cell

     iteration # 16     ecut=    90.00 Ry     beta= 0.20
     Davidson diagonalization with overlap
     ethr =  4.73E-07,  avg # of iterations =  2.0

     total cpu time spent up to now is      647.5 secs

     total energy              =   -2510.30065972 Ry
     estimated scf accuracy    <       0.00028307 Ry

     total magnetization       =    -0.01 Bohr mag/cell
     absolute magnetization    =     0.09 Bohr mag/cell

     iteration # 17     ecut=    90.00 Ry     beta= 0.20
     Davidson diagonalization with overlap
     ethr =  2.14E-07,  avg # of iterations =  1.1

     total cpu time spent up to now is      681.4 secs

     total energy              =   -2510.30066547 Ry
     estimated scf accuracy    <       0.00006550 Ry

     total magnetization       =    -0.01 Bohr mag/cell
     absolute magnetization    =     0.10 Bohr mag/cell

     iteration # 18     ecut=    90.00 Ry     beta= 0.20
     Davidson diagonalization with overlap
     ethr =  4.96E-08,  avg # of iterations =  1.1

     total cpu time spent up to now is      715.5 secs

     total energy              =   -2510.30066416 Ry
     estimated scf accuracy    <       0.00010696 Ry

     total magnetization       =    -0.01 Bohr mag/cell
     absolute magnetization    =     0.09 Bohr mag/cell

     iteration # 19     ecut=    90.00 Ry     beta= 0.20
     Davidson diagonalization with overlap
     ethr =  4.96E-08,  avg # of iterations =  1.0

     total cpu time spent up to now is      749.3 secs

     total energy              =   -2510.30066869 Ry
     estimated scf accuracy    <       0.00012238 Ry

     total magnetization       =    -0.01 Bohr mag/cell
     absolute magnetization    =     0.09 Bohr mag/cell

     iteration # 20     ecut=    90.00 Ry     beta= 0.20
     Davidson diagonalization with overlap
     ethr =  4.96E-08,  avg # of iterations =  1.0

     total cpu time spent up to now is      783.1 secs

     total energy              =   -2510.30067278 Ry
     estimated scf accuracy    <       0.00033386 Ry

     total magnetization       =    -0.01 Bohr mag/cell
     absolute magnetization    =     0.12 Bohr mag/cell

     iteration # 21     ecut=    90.00 Ry     beta= 0.20
     Davidson diagonalization with overlap
     ethr =  4.96E-08,  avg # of iterations =  1.0

     total cpu time spent up to now is      816.8 secs

     total energy              =   -2510.30066962 Ry
     estimated scf accuracy    <       0.00016880 Ry

     total magnetization       =    -0.01 Bohr mag/cell
     absolute magnetization    =     0.12 Bohr mag/cell

     iteration # 22     ecut=    90.00 Ry     beta= 0.20
     Davidson diagonalization with overlap
     ethr =  4.96E-08,  avg # of iterations =  1.0

     total cpu time spent up to now is      850.6 secs

     total energy              =   -2510.30067860 Ry
     estimated scf accuracy    <       0.00009913 Ry

     total magnetization       =    -0.01 Bohr mag/cell
     absolute magnetization    =     0.11 Bohr mag/cell

     iteration # 23     ecut=    90.00 Ry     beta= 0.20
     Davidson diagonalization with overlap
     ethr =  4.96E-08,  avg # of iterations =  1.0

     total cpu time spent up to now is      884.3 secs

     total energy              =   -2510.30067361 Ry
     estimated scf accuracy    <       0.00010473 Ry

     total magnetization       =    -0.01 Bohr mag/cell
     absolute magnetization    =     0.13 Bohr mag/cell

     iteration # 24     ecut=    90.00 Ry     beta= 0.20
     Davidson diagonalization with overlap
     ethr =  4.96E-08,  avg # of iterations =  1.0

     total cpu time spent up to now is      918.1 secs

     total energy              =   -2510.30067061 Ry
     estimated scf accuracy    <       0.00033259 Ry

     total magnetization       =    -0.01 Bohr mag/cell
     absolute magnetization    =     0.11 Bohr mag/cell

     iteration # 25     ecut=    90.00 Ry     beta= 0.20
     Davidson diagonalization with overlap
     ethr =  4.96E-08,  avg # of iterations =  1.0

     total cpu time spent up to now is      953.4 secs

     total energy              =   -2510.30066597 Ry
     estimated scf accuracy    <       0.00043475 Ry

     total magnetization       =    -0.01 Bohr mag/cell
     absolute magnetization    =     0.12 Bohr mag/cell

     iteration # 26     ecut=    90.00 Ry     beta= 0.20
     Davidson diagonalization with overlap
     ethr =  4.96E-08,  avg # of iterations =  1.0

     total cpu time spent up to now is      987.1 secs

     total energy              =   -2510.30066487 Ry
     estimated scf accuracy    <       0.00035221 Ry

     total magnetization       =    -0.01 Bohr mag/cell
     absolute magnetization    =     0.11 Bohr mag/cell

     iteration # 27     ecut=    90.00 Ry     beta= 0.20
     Davidson diagonalization with overlap
     ethr =  4.96E-08,  avg # of iterations =  1.0

     total cpu time spent up to now is     1020.7 secs

     total energy              =   -2510.30065905 Ry
     estimated scf accuracy    <       0.00026889 Ry

     total magnetization       =    -0.01 Bohr mag/cell
     absolute magnetization    =     0.12 Bohr mag/cell

     iteration # 28     ecut=    90.00 Ry     beta= 0.20
     Davidson diagonalization with overlap
     ethr =  4.96E-08,  avg # of iterations =  1.1

     total cpu time spent up to now is     1054.9 secs

     total energy              =   -2510.30063750 Ry
     estimated scf accuracy    <       0.00147617 Ry

     total magnetization       =    -0.01 Bohr mag/cell
     absolute magnetization    =     0.10 Bohr mag/cell

     iteration # 29     ecut=    90.00 Ry     beta= 0.20
     Davidson diagonalization with overlap
     ethr =  4.96E-08,  avg # of iterations =  1.1

     total cpu time spent up to now is     1089.0 secs

     total energy              =   -2510.30065419 Ry
     estimated scf accuracy    <       0.00033002 Ry

     total magnetization       =    -0.01 Bohr mag/cell
     absolute magnetization    =     0.08 Bohr mag/cell

     iteration # 30     ecut=    90.00 Ry     beta= 0.20
     Davidson diagonalization with overlap
     ethr =  4.96E-08,  avg # of iterations =  1.0

     total cpu time spent up to now is     1122.8 secs

     total energy              =   -2510.30065311 Ry
     estimated scf accuracy    <       0.00070690 Ry

     total magnetization       =    -0.01 Bohr mag/cell
     absolute magnetization    =     0.09 Bohr mag/cell

     iteration # 31     ecut=    90.00 Ry     beta= 0.20
     Davidson diagonalization with overlap
     ethr =  4.96E-08,  avg # of iterations =  1.0

     total cpu time spent up to now is     1156.6 secs

     total energy              =   -2510.30064379 Ry
     estimated scf accuracy    <       0.00018676 Ry

     total magnetization       =    -0.01 Bohr mag/cell
     absolute magnetization    =     0.09 Bohr mag/cell

     iteration # 32     ecut=    90.00 Ry     beta= 0.20
     Davidson diagonalization with overlap
     ethr =  4.96E-08,  avg # of iterations =  1.0

     total cpu time spent up to now is     1190.2 secs

     total energy              =   -2510.30064752 Ry
     estimated scf accuracy    <       0.00003744 Ry

     total magnetization       =    -0.00 Bohr mag/cell
     absolute magnetization    =     0.05 Bohr mag/cell

     iteration # 33     ecut=    90.00 Ry     beta= 0.20
     Davidson diagonalization with overlap
     ethr =  2.84E-08,  avg # of iterations =  1.0

     total cpu time spent up to now is     1224.0 secs

     total energy              =   -2510.30064758 Ry
     estimated scf accuracy    <       0.00002277 Ry

     total magnetization       =    -0.00 Bohr mag/cell
     absolute magnetization    =     0.02 Bohr mag/cell

     iteration # 34     ecut=    90.00 Ry     beta= 0.20
     Davidson diagonalization with overlap
     ethr =  1.72E-08,  avg # of iterations =  1.7

     total cpu time spent up to now is     1260.2 secs

     total energy              =   -2510.30063898 Ry
     estimated scf accuracy    <       0.00063170 Ry

     total magnetization       =    -0.00 Bohr mag/cell
     absolute magnetization    =     0.02 Bohr mag/cell

     iteration # 35     ecut=    90.00 Ry     beta= 0.20
     Davidson diagonalization with overlap
     ethr =  1.72E-08,  avg # of iterations =  2.1

     total cpu time spent up to now is     1298.3 secs

     total energy              =   -2510.30063656 Ry
     estimated scf accuracy    <       0.00093830 Ry

     total magnetization       =    -0.00 Bohr mag/cell
     absolute magnetization    =     0.02 Bohr mag/cell

     iteration # 36     ecut=    90.00 Ry     beta= 0.20
     Davidson diagonalization with overlap
     ethr =  1.72E-08,  avg # of iterations =  2.0

     total cpu time spent up to now is     1336.4 secs

     total energy              =   -2510.30064575 Ry
     estimated scf accuracy    <       0.00022668 Ry

     total magnetization       =    -0.00 Bohr mag/cell
     absolute magnetization    =     0.03 Bohr mag/cell

     iteration # 37     ecut=    90.00 Ry     beta= 0.20
     Davidson diagonalization with overlap
     ethr =  1.72E-08,  avg # of iterations =  1.0

     total cpu time spent up to now is     1370.1 secs

     total energy              =   -2510.30065061 Ry
     estimated scf accuracy    <       0.00003785 Ry

     total magnetization       =    -0.00 Bohr mag/cell
     absolute magnetization    =     0.02 Bohr mag/cell

     iteration # 38     ecut=    90.00 Ry     beta= 0.20
     Davidson diagonalization with overlap
     ethr =  1.72E-08,  avg # of iterations =  1.0

     total cpu time spent up to now is     1403.8 secs

     total energy              =   -2510.30064913 Ry
     estimated scf accuracy    <       0.00022242 Ry

     total magnetization       =    -0.00 Bohr mag/cell
     absolute magnetization    =     0.02 Bohr mag/cell

     iteration # 39     ecut=    90.00 Ry     beta= 0.20
     Davidson diagonalization with overlap
     ethr =  1.72E-08,  avg # of iterations =  1.0

     total cpu time spent up to now is     1437.4 secs

     total energy              =   -2510.30065079 Ry
     estimated scf accuracy    <       0.00004010 Ry

     total magnetization       =    -0.00 Bohr mag/cell
     absolute magnetization    =     0.02 Bohr mag/cell

     iteration # 40     ecut=    90.00 Ry     beta= 0.20
     Davidson diagonalization with overlap
     ethr =  1.72E-08,  avg # of iterations =  1.0

     total cpu time spent up to now is     1471.1 secs

     total energy              =   -2510.30064902 Ry
     estimated scf accuracy    <       0.00014522 Ry

     total magnetization       =    -0.00 Bohr mag/cell
     absolute magnetization    =     0.02 Bohr mag/cell

     iteration # 41     ecut=    90.00 Ry     beta= 0.20
     Davidson diagonalization with overlap
     ethr =  1.72E-08,  avg # of iterations =  1.0

     total cpu time spent up to now is     1504.7 secs

     total energy              =   -2510.30065205 Ry
     estimated scf accuracy    <       0.00004428 Ry

     total magnetization       =    -0.00 Bohr mag/cell
     absolute magnetization    =     0.02 Bohr mag/cell

     iteration # 42     ecut=    90.00 Ry     beta= 0.20
     Davidson diagonalization with overlap
     ethr =  1.72E-08,  avg # of iterations =  1.0

     total cpu time spent up to now is     1538.4 secs

     total energy              =   -2510.30065271 Ry
     estimated scf accuracy    <       0.00000515 Ry

     total magnetization       =    -0.00 Bohr mag/cell
     absolute magnetization    =     0.03 Bohr mag/cell

     iteration # 43     ecut=    90.00 Ry     beta= 0.20
     Davidson diagonalization with overlap
     ethr =  3.91E-09,  avg # of iterations =  1.0

     total cpu time spent up to now is     1572.0 secs

     total energy              =   -2510.30065188 Ry
     estimated scf accuracy    <       0.00000520 Ry

     total magnetization       =    -0.01 Bohr mag/cell
     absolute magnetization    =     0.03 Bohr mag/cell

     iteration # 44     ecut=    90.00 Ry     beta= 0.20
     Davidson diagonalization with overlap
     ethr =  3.91E-09,  avg # of iterations =  1.0

     total cpu time spent up to now is     1605.6 secs

     total energy              =   -2510.30065177 Ry
     estimated scf accuracy    <       0.00001590 Ry

     total magnetization       =    -0.00 Bohr mag/cell
     absolute magnetization    =     0.02 Bohr mag/cell

     iteration # 45     ecut=    90.00 Ry     beta= 0.20
     Davidson diagonalization with overlap
     ethr =  3.91E-09,  avg # of iterations =  1.0

     total cpu time spent up to now is     1639.1 secs

     total energy              =   -2510.30065131 Ry
     estimated scf accuracy    <       0.00004572 Ry

     total magnetization       =     0.00 Bohr mag/cell
     absolute magnetization    =     0.02 Bohr mag/cell

     iteration # 46     ecut=    90.00 Ry     beta= 0.20
     Davidson diagonalization with overlap
     ethr =  3.91E-09,  avg # of iterations =  1.1

     total cpu time spent up to now is     1672.8 secs

     total energy              =   -2510.30065184 Ry
     estimated scf accuracy    <       0.00002185 Ry

     total magnetization       =    -0.00 Bohr mag/cell
     absolute magnetization    =     0.02 Bohr mag/cell

     iteration # 47     ecut=    90.00 Ry     beta= 0.20
     Davidson diagonalization with overlap
     ethr =  3.91E-09,  avg # of iterations =  1.0

     total cpu time spent up to now is     1706.3 secs

     total energy              =   -2510.30065165 Ry
     estimated scf accuracy    <       0.00001082 Ry

     total magnetization       =    -0.00 Bohr mag/cell
     absolute magnetization    =     0.03 Bohr mag/cell

     iteration # 48     ecut=    90.00 Ry     beta= 0.20
     Davidson diagonalization with overlap
     ethr =  3.91E-09,  avg # of iterations =  1.0

     total cpu time spent up to now is     1739.9 secs

     total energy              =   -2510.30065151 Ry
     estimated scf accuracy    <       0.00002686 Ry

     total magnetization       =     0.00 Bohr mag/cell
     absolute magnetization    =     0.02 Bohr mag/cell

     iteration # 49     ecut=    90.00 Ry     beta= 0.20
     Davidson diagonalization with overlap
     ethr =  3.91E-09,  avg # of iterations =  1.0

     total cpu time spent up to now is     1773.4 secs

     total energy              =   -2510.30065190 Ry
     estimated scf accuracy    <       0.00000892 Ry

     total magnetization       =     0.01 Bohr mag/cell
     absolute magnetization    =     0.02 Bohr mag/cell

     iteration # 50     ecut=    90.00 Ry     beta= 0.20
     Davidson diagonalization with overlap
     ethr =  3.91E-09,  avg # of iterations =  1.1

     total cpu time spent up to now is     1807.0 secs

     total energy              =   -2510.30065108 Ry
     estimated scf accuracy    <       0.00003853 Ry

     total magnetization       =     0.01 Bohr mag/cell
     absolute magnetization    =     0.02 Bohr mag/cell

     iteration # 51     ecut=    90.00 Ry     beta= 0.20
     Davidson diagonalization with overlap
     ethr =  3.91E-09,  avg # of iterations =  2.0

     total cpu time spent up to now is     1844.8 secs

     total energy              =   -2510.30064758 Ry
     estimated scf accuracy    <       0.00031453 Ry

     total magnetization       =     0.01 Bohr mag/cell
     absolute magnetization    =     0.03 Bohr mag/cell

     iteration # 52     ecut=    90.00 Ry     beta= 0.20
     Davidson diagonalization with overlap
     ethr =  3.91E-09,  avg # of iterations =  1.7

     total cpu time spent up to now is     1881.0 secs

     total energy              =   -2510.30065233 Ry
     estimated scf accuracy    <       0.00000185 Ry

     total magnetization       =     0.01 Bohr mag/cell
     absolute magnetization    =     0.02 Bohr mag/cell

     iteration # 53     ecut=    90.00 Ry     beta= 0.20
     Davidson diagonalization with overlap
     ethr =  1.40E-09,  avg # of iterations =  1.0

     total cpu time spent up to now is     1914.7 secs

     total energy              =   -2510.30065163 Ry
     estimated scf accuracy    <       0.00000220 Ry

     total magnetization       =     0.02 Bohr mag/cell
     absolute magnetization    =     0.03 Bohr mag/cell

     iteration # 54     ecut=    90.00 Ry     beta= 0.20
     Davidson diagonalization with overlap
     ethr =  1.40E-09,  avg # of iterations =  1.0

     total cpu time spent up to now is     1948.3 secs

     total energy              =   -2510.30065178 Ry
     estimated scf accuracy    <       0.00000217 Ry

     total magnetization       =     0.01 Bohr mag/cell
     absolute magnetization    =     0.02 Bohr mag/cell

     iteration # 55     ecut=    90.00 Ry     beta= 0.20
     Davidson diagonalization with overlap
     ethr =  1.40E-09,  avg # of iterations =  1.0

     total cpu time spent up to now is     1981.7 secs

     total energy              =   -2510.30065181 Ry
     estimated scf accuracy    <       0.00000613 Ry

     total magnetization       =     0.01 Bohr mag/cell
     absolute magnetization    =     0.02 Bohr mag/cell

     iteration # 56     ecut=    90.00 Ry     beta= 0.20
     Davidson diagonalization with overlap
     ethr =  1.40E-09,  avg # of iterations =  1.0

     total cpu time spent up to now is     2015.1 secs

     total energy              =   -2510.30065163 Ry
     estimated scf accuracy    <       0.00001318 Ry

     total magnetization       =     0.01 Bohr mag/cell
     absolute magnetization    =     0.02 Bohr mag/cell

     iteration # 57     ecut=    90.00 Ry     beta= 0.20
     Davidson diagonalization with overlap
     ethr =  1.40E-09,  avg # of iterations =  1.0

     total cpu time spent up to now is     2048.6 secs

     total energy              =   -2510.30065161 Ry
     estimated scf accuracy    <       0.00001505 Ry

     total magnetization       =     0.01 Bohr mag/cell
     absolute magnetization    =     0.01 Bohr mag/cell

     iteration # 58     ecut=    90.00 Ry     beta= 0.20
     Davidson diagonalization with overlap
     ethr =  1.40E-09,  avg # of iterations =  1.0

     total cpu time spent up to now is     2082.1 secs

     total energy              =   -2510.30065162 Ry
     estimated scf accuracy    <       0.00001713 Ry

     total magnetization       =     0.01 Bohr mag/cell
     absolute magnetization    =     0.01 Bohr mag/cell

     iteration # 59     ecut=    90.00 Ry     beta= 0.20
     Davidson diagonalization with overlap
     ethr =  1.40E-09,  avg # of iterations =  1.0

     total cpu time spent up to now is     2115.6 secs

     total energy              =   -2510.30065170 Ry
     estimated scf accuracy    <       0.00001478 Ry

     total magnetization       =     0.01 Bohr mag/cell
     absolute magnetization    =     0.01 Bohr mag/cell

     iteration # 60     ecut=    90.00 Ry     beta= 0.20
     Davidson diagonalization with overlap
     ethr =  1.40E-09,  avg # of iterations =  1.0

     total cpu time spent up to now is     2149.0 secs

     total energy              =   -2510.30065189 Ry
     estimated scf accuracy    <       0.00000365 Ry

     total magnetization       =     0.01 Bohr mag/cell
     absolute magnetization    =     0.01 Bohr mag/cell

     iteration # 61     ecut=    90.00 Ry     beta= 0.20
     Davidson diagonalization with overlap
     ethr =  1.40E-09,  avg # of iterations =  1.1

     total cpu time spent up to now is     2182.7 secs

     total energy              =   -2510.30065123 Ry
     estimated scf accuracy    <       0.00002750 Ry

     total magnetization       =     0.01 Bohr mag/cell
     absolute magnetization    =     0.01 Bohr mag/cell

     iteration # 62     ecut=    90.00 Ry     beta= 0.20
     Davidson diagonalization with overlap
     ethr =  1.40E-09,  avg # of iterations =  1.3

     total cpu time spent up to now is     2217.2 secs

     total energy              =   -2510.30065179 Ry
     estimated scf accuracy    <       0.00002114 Ry

     total magnetization       =     0.01 Bohr mag/cell
     absolute magnetization    =     0.01 Bohr mag/cell

     iteration # 63     ecut=    90.00 Ry     beta= 0.20
     Davidson diagonalization with overlap
     ethr =  1.40E-09,  avg # of iterations =  1.0

     total cpu time spent up to now is     2250.5 secs

     total energy              =   -2510.30065203 Ry
     estimated scf accuracy    <       0.00000082 Ry

     total magnetization       =     0.01 Bohr mag/cell
     absolute magnetization    =     0.02 Bohr mag/cell

     iteration # 64     ecut=    90.00 Ry     beta= 0.20
     Davidson diagonalization with overlap
     ethr =  6.20E-10,  avg # of iterations =  1.0

     total cpu time spent up to now is     2283.8 secs

     total energy              =   -2510.30065200 Ry
     estimated scf accuracy    <       0.00000215 Ry

     total magnetization       =     0.01 Bohr mag/cell
     absolute magnetization    =     0.01 Bohr mag/cell

     iteration # 65     ecut=    90.00 Ry     beta= 0.20
     Davidson diagonalization with overlap
     ethr =  6.20E-10,  avg # of iterations =  1.0

     total cpu time spent up to now is     2317.0 secs

     total energy              =   -2510.30065202 Ry
     estimated scf accuracy    <       0.00000128 Ry

     total magnetization       =     0.01 Bohr mag/cell
     absolute magnetization    =     0.01 Bohr mag/cell

     iteration # 66     ecut=    90.00 Ry     beta= 0.20
     Davidson diagonalization with overlap
     ethr =  6.20E-10,  avg # of iterations =  1.0

     total cpu time spent up to now is     2350.4 secs

     total energy              =   -2510.30065204 Ry
     estimated scf accuracy    <       0.00000092 Ry

     total magnetization       =     0.01 Bohr mag/cell
     absolute magnetization    =     0.01 Bohr mag/cell

     iteration # 67     ecut=    90.00 Ry     beta= 0.20
     Davidson diagonalization with overlap
     ethr =  6.20E-10,  avg # of iterations =  1.0

     total cpu time spent up to now is     2383.6 secs

     total energy              =   -2510.30065207 Ry
     estimated scf accuracy    <       0.00000124 Ry

     total magnetization       =     0.01 Bohr mag/cell
     absolute magnetization    =     0.01 Bohr mag/cell

     iteration # 68     ecut=    90.00 Ry     beta= 0.20
     Davidson diagonalization with overlap
     ethr =  6.20E-10,  avg # of iterations =  1.0

     total cpu time spent up to now is     2416.9 secs

     total energy              =   -2510.30065209 Ry
     estimated scf accuracy    <       0.00000156 Ry

     total magnetization       =     0.01 Bohr mag/cell
     absolute magnetization    =     0.02 Bohr mag/cell

     iteration # 69     ecut=    90.00 Ry     beta= 0.20
     Davidson diagonalization with overlap
     ethr =  6.20E-10,  avg # of iterations =  1.0

     total cpu time spent up to now is     2450.2 secs

     total energy              =   -2510.30065208 Ry
     estimated scf accuracy    <       0.00000108 Ry

     total magnetization       =     0.01 Bohr mag/cell
     absolute magnetization    =     0.02 Bohr mag/cell

     iteration # 70     ecut=    90.00 Ry     beta= 0.20
     Davidson diagonalization with overlap
     ethr =  6.20E-10,  avg # of iterations =  1.0

     total cpu time spent up to now is     2483.4 secs

     total energy              =   -2510.30065165 Ry
     estimated scf accuracy    <       0.00000115 Ry

     total magnetization       =     0.01 Bohr mag/cell
     absolute magnetization    =     0.02 Bohr mag/cell

     iteration # 71     ecut=    90.00 Ry     beta= 0.20
     Davidson diagonalization with overlap
     ethr =  6.20E-10,  avg # of iterations =  1.0

     total cpu time spent up to now is     2516.9 secs

     total energy              =   -2510.30065181 Ry
     estimated scf accuracy    <       0.00000397 Ry

     total magnetization       =     0.00 Bohr mag/cell
     absolute magnetization    =     0.01 Bohr mag/cell

     iteration # 72     ecut=    90.00 Ry     beta= 0.20
     Davidson diagonalization with overlap
     ethr =  6.20E-10,  avg # of iterations =  1.6

     total cpu time spent up to now is     2552.7 secs

     total energy              =   -2510.30065128 Ry
     estimated scf accuracy    <       0.00003113 Ry

     total magnetization       =     0.01 Bohr mag/cell
     absolute magnetization    =     0.02 Bohr mag/cell

     iteration # 73     ecut=    90.00 Ry     beta= 0.20
     Davidson diagonalization with overlap
     ethr =  6.20E-10,  avg # of iterations =  1.2

     total cpu time spent up to now is     2587.0 secs

     total energy              =   -2510.30065183 Ry
     estimated scf accuracy    <       0.00000041 Ry

     total magnetization       =     0.00 Bohr mag/cell
     absolute magnetization    =     0.01 Bohr mag/cell

     iteration # 74     ecut=    90.00 Ry     beta= 0.20
     Davidson diagonalization with overlap
     ethr =  3.12E-10,  avg # of iterations =  1.0

     total cpu time spent up to now is     2620.3 secs

     total energy              =   -2510.30065186 Ry
     estimated scf accuracy    <       0.00000053 Ry

     total magnetization       =     0.00 Bohr mag/cell
     absolute magnetization    =     0.01 Bohr mag/cell

     iteration # 75     ecut=    90.00 Ry     beta= 0.20
     Davidson diagonalization with overlap
     ethr =  3.12E-10,  avg # of iterations =  1.0

     total cpu time spent up to now is     2653.5 secs

     total energy              =   -2510.30065187 Ry
     estimated scf accuracy    <       0.00000041 Ry

     total magnetization       =     0.00 Bohr mag/cell
     absolute magnetization    =     0.01 Bohr mag/cell

     iteration # 76     ecut=    90.00 Ry     beta= 0.20
     Davidson diagonalization with overlap
     ethr =  3.12E-10,  avg # of iterations =  1.0

     total cpu time spent up to now is     2686.8 secs

     total energy              =   -2510.30065188 Ry
     estimated scf accuracy    <       0.00000041 Ry

     total magnetization       =     0.00 Bohr mag/cell
     absolute magnetization    =     0.01 Bohr mag/cell

     iteration # 77     ecut=    90.00 Ry     beta= 0.20
     Davidson diagonalization with overlap
     ethr =  3.11E-10,  avg # of iterations =  1.0

     total cpu time spent up to now is     2720.2 secs

     total energy              =   -2510.30065191 Ry
     estimated scf accuracy    <       0.00000033 Ry

     total magnetization       =     0.00 Bohr mag/cell
     absolute magnetization    =     0.01 Bohr mag/cell

     iteration # 78     ecut=    90.00 Ry     beta= 0.20
     Davidson diagonalization with overlap
     ethr =  2.47E-10,  avg # of iterations =  1.0

     total cpu time spent up to now is     2753.5 secs

     total energy              =   -2510.30065192 Ry
     estimated scf accuracy    <       0.00000023 Ry

     total magnetization       =     0.00 Bohr mag/cell
     absolute magnetization    =     0.01 Bohr mag/cell

     iteration # 79     ecut=    90.00 Ry     beta= 0.20
     Davidson diagonalization with overlap
     ethr =  1.77E-10,  avg # of iterations =  1.0

     total cpu time spent up to now is     2786.7 secs

     total energy              =   -2510.30065190 Ry
     estimated scf accuracy    <       0.00000059 Ry

     total magnetization       =     0.00 Bohr mag/cell
     absolute magnetization    =     0.01 Bohr mag/cell

     iteration # 80     ecut=    90.00 Ry     beta= 0.20
     Davidson diagonalization with overlap
     ethr =  1.77E-10,  avg # of iterations =  1.0

     total cpu time spent up to now is     2820.0 secs

     total energy              =   -2510.30065187 Ry
     estimated scf accuracy    <       0.00000023 Ry

     total magnetization       =     0.00 Bohr mag/cell
     absolute magnetization    =     0.01 Bohr mag/cell

     iteration # 81     ecut=    90.00 Ry     beta= 0.20
     Davidson diagonalization with overlap
     ethr =  1.77E-10,  avg # of iterations =  1.0

     total cpu time spent up to now is     2853.2 secs

     total energy              =   -2510.30065185 Ry
     estimated scf accuracy    <       0.00000038 Ry

     total magnetization       =     0.00 Bohr mag/cell
     absolute magnetization    =     0.01 Bohr mag/cell

     iteration # 82     ecut=    90.00 Ry     beta= 0.20
     Davidson diagonalization with overlap
     ethr =  1.77E-10,  avg # of iterations =  1.0

     total cpu time spent up to now is     2886.5 secs

     total energy              =   -2510.30065188 Ry
     estimated scf accuracy    <       0.00000040 Ry

     total magnetization       =    -0.00 Bohr mag/cell
     absolute magnetization    =     0.01 Bohr mag/cell

     iteration # 83     ecut=    90.00 Ry     beta= 0.20
     Davidson diagonalization with overlap
     ethr =  1.77E-10,  avg # of iterations =  1.0

     total cpu time spent up to now is     2919.8 secs

     total energy              =   -2510.30065185 Ry
     estimated scf accuracy    <       0.00000089 Ry

     total magnetization       =     0.00 Bohr mag/cell
     absolute magnetization    =     0.01 Bohr mag/cell

     iteration # 84     ecut=    90.00 Ry     beta= 0.20
     Davidson diagonalization with overlap
     ethr =  1.77E-10,  avg # of iterations =  1.0

     total cpu time spent up to now is     2953.0 secs

     total energy              =   -2510.30065188 Ry
     estimated scf accuracy    <       0.00000022 Ry

     total magnetization       =    -0.00 Bohr mag/cell
     absolute magnetization    =     0.01 Bohr mag/cell

     iteration # 85     ecut=    90.00 Ry     beta= 0.20
     Davidson diagonalization with overlap
     ethr =  1.67E-10,  avg # of iterations =  1.0

     total cpu time spent up to now is     2986.2 secs

     total energy              =   -2510.30065189 Ry
     estimated scf accuracy    <       0.00000017 Ry

     total magnetization       =    -0.00 Bohr mag/cell
     absolute magnetization    =     0.01 Bohr mag/cell

     iteration # 86     ecut=    90.00 Ry     beta= 0.20
     Davidson diagonalization with overlap
     ethr =  1.25E-10,  avg # of iterations =  1.0

     total cpu time spent up to now is     3019.4 secs

     total energy              =   -2510.30065189 Ry
     estimated scf accuracy    <       0.00000019 Ry

     total magnetization       =    -0.00 Bohr mag/cell
     absolute magnetization    =     0.01 Bohr mag/cell

     iteration # 87     ecut=    90.00 Ry     beta= 0.20
     Davidson diagonalization with overlap
     ethr =  1.25E-10,  avg # of iterations =  1.0

     total cpu time spent up to now is     3052.6 secs

     total energy              =   -2510.30065191 Ry
     estimated scf accuracy    <       0.00000014 Ry

     total magnetization       =    -0.00 Bohr mag/cell
     absolute magnetization    =     0.01 Bohr mag/cell

     iteration # 88     ecut=    90.00 Ry     beta= 0.20
     Davidson diagonalization with overlap
     ethr =  1.06E-10,  avg # of iterations =  1.0

     total cpu time spent up to now is     3085.9 secs

     total energy              =   -2510.30065190 Ry
     estimated scf accuracy    <       0.00000019 Ry

     total magnetization       =    -0.00 Bohr mag/cell
     absolute magnetization    =     0.01 Bohr mag/cell

     iteration # 89     ecut=    90.00 Ry     beta= 0.20
     Davidson diagonalization with overlap
     ethr =  1.06E-10,  avg # of iterations =  1.0

     total cpu time spent up to now is     3119.1 secs

     total energy              =   -2510.30065188 Ry
     estimated scf accuracy    <       0.00000096 Ry

     total magnetization       =    -0.00 Bohr mag/cell
     absolute magnetization    =     0.01 Bohr mag/cell

     iteration # 90     ecut=    90.00 Ry     beta= 0.20
     Davidson diagonalization with overlap
     ethr =  1.06E-10,  avg # of iterations =  1.0

     total cpu time spent up to now is     3152.3 secs

     total energy              =   -2510.30065187 Ry
     estimated scf accuracy    <       0.00000019 Ry

     total magnetization       =    -0.00 Bohr mag/cell
     absolute magnetization    =     0.01 Bohr mag/cell

     iteration # 91     ecut=    90.00 Ry     beta= 0.20
     Davidson diagonalization with overlap
     ethr =  1.06E-10,  avg # of iterations =  1.0

     total cpu time spent up to now is     3185.6 secs

     total energy              =   -2510.30065186 Ry
     estimated scf accuracy    <       0.00000042 Ry

     total magnetization       =    -0.00 Bohr mag/cell
     absolute magnetization    =     0.01 Bohr mag/cell

     iteration # 92     ecut=    90.00 Ry     beta= 0.20
     Davidson diagonalization with overlap
     ethr =  1.06E-10,  avg # of iterations =  1.0

     total cpu time spent up to now is     3218.8 secs

     total energy              =   -2510.30065189 Ry
     estimated scf accuracy    <       0.00000015 Ry

     total magnetization       =    -0.00 Bohr mag/cell
     absolute magnetization    =     0.01 Bohr mag/cell

     iteration # 93     ecut=    90.00 Ry     beta= 0.20
     Davidson diagonalization with overlap
     ethr =  1.06E-10,  avg # of iterations =  1.0

     total cpu time spent up to now is     3252.1 secs

     total energy              =   -2510.30065183 Ry
     estimated scf accuracy    <       0.00000149 Ry

     total magnetization       =    -0.00 Bohr mag/cell
     absolute magnetization    =     0.01 Bohr mag/cell

     iteration # 94     ecut=    90.00 Ry     beta= 0.20
     Davidson diagonalization with overlap
     ethr =  1.06E-10,  avg # of iterations =  1.1

     total cpu time spent up to now is     3285.7 secs

     total energy              =   -2510.30065189 Ry
     estimated scf accuracy    <       0.00000039 Ry

     total magnetization       =    -0.00 Bohr mag/cell
     absolute magnetization    =     0.01 Bohr mag/cell

     iteration # 95     ecut=    90.00 Ry     beta= 0.20
     Davidson diagonalization with overlap
     ethr =  1.06E-10,  avg # of iterations =  1.0

     total cpu time spent up to now is     3318.9 secs

     total energy              =   -2510.30065190 Ry
     estimated scf accuracy    <       0.00000017 Ry

     total magnetization       =    -0.00 Bohr mag/cell
     absolute magnetization    =     0.01 Bohr mag/cell

     iteration # 96     ecut=    90.00 Ry     beta= 0.20
     Davidson diagonalization with overlap
     ethr =  1.06E-10,  avg # of iterations =  1.0

     total cpu time spent up to now is     3352.2 secs

     total energy              =   -2510.30065189 Ry
     estimated scf accuracy    <       0.00000013 Ry

     total magnetization       =    -0.00 Bohr mag/cell
     absolute magnetization    =     0.01 Bohr mag/cell

     iteration # 97     ecut=    90.00 Ry     beta= 0.20
     Davidson diagonalization with overlap
     ethr =  9.59E-11,  avg # of iterations =  1.0

     total cpu time spent up to now is     3385.4 secs

     total energy              =   -2510.30065190 Ry
     estimated scf accuracy    <       0.00000011 Ry

     total magnetization       =    -0.00 Bohr mag/cell
     absolute magnetization    =     0.01 Bohr mag/cell

     iteration # 98     ecut=    90.00 Ry     beta= 0.20
     Davidson diagonalization with overlap
     ethr =  8.70E-11,  avg # of iterations =  1.0

     total cpu time spent up to now is     3418.6 secs

     total energy              =   -2510.30065190 Ry
     estimated scf accuracy    <       0.00000015 Ry

     total magnetization       =    -0.00 Bohr mag/cell
     absolute magnetization    =     0.01 Bohr mag/cell

     iteration # 99     ecut=    90.00 Ry     beta= 0.20
     Davidson diagonalization with overlap
     ethr =  8.70E-11,  avg # of iterations =  1.0

     total cpu time spent up to now is     3451.8 secs

     total energy              =   -2510.30065191 Ry
     estimated scf accuracy    <       0.00000015 Ry

     total magnetization       =    -0.00 Bohr mag/cell
     absolute magnetization    =     0.01 Bohr mag/cell

     iteration #100     ecut=    90.00 Ry     beta= 0.20
     Davidson diagonalization with overlap
     ethr =  8.70E-11,  avg # of iterations =  1.0

     total cpu time spent up to now is     3485.0 secs

     total energy              =   -2510.30065191 Ry
     estimated scf accuracy    <       0.00000016 Ry

     total magnetization       =    -0.00 Bohr mag/cell
     absolute magnetization    =     0.01 Bohr mag/cell

     iteration #101     ecut=    90.00 Ry     beta= 0.20
     Davidson diagonalization with overlap
     ethr =  8.70E-11,  avg # of iterations =  1.0

     total cpu time spent up to now is     3518.3 secs

     total energy              =   -2510.30065191 Ry
     estimated scf accuracy    <       0.00000019 Ry

     total magnetization       =    -0.00 Bohr mag/cell
     absolute magnetization    =     0.01 Bohr mag/cell

     iteration #102     ecut=    90.00 Ry     beta= 0.20
     Davidson diagonalization with overlap
     ethr =  8.70E-11,  avg # of iterations =  1.0

     total cpu time spent up to now is     3551.5 secs

     total energy              =   -2510.30065191 Ry
     estimated scf accuracy    <       0.00000042 Ry

     total magnetization       =    -0.00 Bohr mag/cell
     absolute magnetization    =     0.01 Bohr mag/cell

     iteration #103     ecut=    90.00 Ry     beta= 0.20
     Davidson diagonalization with overlap
     ethr =  8.70E-11,  avg # of iterations =  1.1

     total cpu time spent up to now is     3585.2 secs

     total energy              =   -2510.30065189 Ry
     estimated scf accuracy    <       0.00000187 Ry

     total magnetization       =    -0.01 Bohr mag/cell
     absolute magnetization    =     0.01 Bohr mag/cell

     iteration #104     ecut=    90.00 Ry     beta= 0.20
     Davidson diagonalization with overlap
     ethr =  8.70E-11,  avg # of iterations =  1.0

     total cpu time spent up to now is     3618.5 secs

     total energy              =   -2510.30065191 Ry
     estimated scf accuracy    <       0.00000019 Ry

     total magnetization       =    -0.00 Bohr mag/cell
     absolute magnetization    =     0.01 Bohr mag/cell

     iteration #105     ecut=    90.00 Ry     beta= 0.20
     Davidson diagonalization with overlap
     ethr =  8.70E-11,  avg # of iterations =  1.0

     total cpu time spent up to now is     3651.7 secs

     total energy              =   -2510.30065189 Ry
     estimated scf accuracy    <       0.00000090 Ry

     total magnetization       =    -0.00 Bohr mag/cell
     absolute magnetization    =     0.01 Bohr mag/cell

     iteration #106     ecut=    90.00 Ry     beta= 0.20
     Davidson diagonalization with overlap
     ethr =  8.70E-11,  avg # of iterations =  1.0

     total cpu time spent up to now is     3684.9 secs

     total energy              =   -2510.30065188 Ry
     estimated scf accuracy    <       0.00000111 Ry

     total magnetization       =    -0.00 Bohr mag/cell
     absolute magnetization    =     0.01 Bohr mag/cell

     iteration #107     ecut=    90.00 Ry     beta= 0.20
     Davidson diagonalization with overlap
     ethr =  8.70E-11,  avg # of iterations =  1.2

     total cpu time spent up to now is     3718.9 secs

     total energy              =   -2510.30065189 Ry
     estimated scf accuracy    <       0.00000065 Ry

     total magnetization       =     0.00 Bohr mag/cell
     absolute magnetization    =     0.01 Bohr mag/cell

     iteration #108     ecut=    90.00 Ry     beta= 0.20
     Davidson diagonalization with overlap
     ethr =  8.70E-11,  avg # of iterations =  1.0

     total cpu time spent up to now is     3752.2 secs

     total energy              =   -2510.30065192 Ry
     estimated scf accuracy    <       0.00000023 Ry

     total magnetization       =    -0.00 Bohr mag/cell
     absolute magnetization    =     0.01 Bohr mag/cell

     iteration #109     ecut=    90.00 Ry     beta= 0.20
     Davidson diagonalization with overlap
     ethr =  8.70E-11,  avg # of iterations =  1.0

     total cpu time spent up to now is     3785.5 secs

     total energy              =   -2510.30065190 Ry
     estimated scf accuracy    <       0.00000059 Ry

     total magnetization       =    -0.00 Bohr mag/cell
     absolute magnetization    =     0.01 Bohr mag/cell

     iteration #110     ecut=    90.00 Ry     beta= 0.20
     Davidson diagonalization with overlap
     ethr =  8.70E-11,  avg # of iterations =  1.0

     total cpu time spent up to now is     3818.9 secs

     total energy              =   -2510.30065193 Ry
     estimated scf accuracy    <       0.00000054 Ry

     total magnetization       =    -0.00 Bohr mag/cell
     absolute magnetization    =     0.01 Bohr mag/cell

     iteration #111     ecut=    90.00 Ry     beta= 0.20
     Davidson diagonalization with overlap
     ethr =  8.70E-11,  avg # of iterations =  1.0

     total cpu time spent up to now is     3852.1 secs

     total energy              =   -2510.30065193 Ry
     estimated scf accuracy    <       0.00000033 Ry

     total magnetization       =    -0.00 Bohr mag/cell
     absolute magnetization    =     0.01 Bohr mag/cell

     iteration #112     ecut=    90.00 Ry     beta= 0.20
     Davidson diagonalization with overlap
     ethr =  8.70E-11,  avg # of iterations =  1.0

     total cpu time spent up to now is     3885.3 secs

     total energy              =   -2510.30065193 Ry
     estimated scf accuracy    <       0.00000040 Ry

     total magnetization       =    -0.00 Bohr mag/cell
     absolute magnetization    =     0.01 Bohr mag/cell

     iteration #113     ecut=    90.00 Ry     beta= 0.20
     Davidson diagonalization with overlap
     ethr =  8.70E-11,  avg # of iterations =  1.0

     total cpu time spent up to now is     3918.6 secs

     total energy              =   -2510.30065193 Ry
     estimated scf accuracy    <       0.00000068 Ry

     total magnetization       =    -0.00 Bohr mag/cell
     absolute magnetization    =     0.01 Bohr mag/cell

     iteration #114     ecut=    90.00 Ry     beta= 0.20
     Davidson diagonalization with overlap
     ethr =  8.70E-11,  avg # of iterations =  1.0

     total cpu time spent up to now is     3951.8 secs

     total energy              =   -2510.30065194 Ry
     estimated scf accuracy    <       0.00000040 Ry

     total magnetization       =    -0.00 Bohr mag/cell
     absolute magnetization    =     0.01 Bohr mag/cell

     iteration #115     ecut=    90.00 Ry     beta= 0.20
     Davidson diagonalization with overlap
     ethr =  8.70E-11,  avg # of iterations =  1.0

     total cpu time spent up to now is     3985.0 secs

     total energy              =   -2510.30065193 Ry
     estimated scf accuracy    <       0.00000046 Ry

     total magnetization       =    -0.00 Bohr mag/cell
     absolute magnetization    =     0.01 Bohr mag/cell

     iteration #116     ecut=    90.00 Ry     beta= 0.20
     Davidson diagonalization with overlap
     ethr =  8.70E-11,  avg # of iterations =  1.0

     total cpu time spent up to now is     4018.3 secs

     total energy              =   -2510.30065193 Ry
     estimated scf accuracy    <       0.00000044 Ry

     total magnetization       =    -0.01 Bohr mag/cell
     absolute magnetization    =     0.01 Bohr mag/cell

     iteration #117     ecut=    90.00 Ry     beta= 0.20
     Davidson diagonalization with overlap
     ethr =  8.70E-11,  avg # of iterations =  1.0

     total cpu time spent up to now is     4051.7 secs

     total energy              =   -2510.30065194 Ry
     estimated scf accuracy    <       0.00000039 Ry

     total magnetization       =    -0.01 Bohr mag/cell
     absolute magnetization    =     0.01 Bohr mag/cell

     iteration #118     ecut=    90.00 Ry     beta= 0.20
     Davidson diagonalization with overlap
     ethr =  8.70E-11,  avg # of iterations =  1.0

     total cpu time spent up to now is     4084.9 secs

     total energy              =   -2510.30065194 Ry
     estimated scf accuracy    <       0.00000041 Ry

     total magnetization       =    -0.01 Bohr mag/cell
     absolute magnetization    =     0.01 Bohr mag/cell

     iteration #119     ecut=    90.00 Ry     beta= 0.20
     Davidson diagonalization with overlap
     ethr =  8.70E-11,  avg # of iterations =  1.0

     total cpu time spent up to now is     4118.2 secs

     total energy              =   -2510.30065195 Ry
     estimated scf accuracy    <       0.00000106 Ry

     total magnetization       =    -0.00 Bohr mag/cell
     absolute magnetization    =     0.01 Bohr mag/cell

     iteration #120     ecut=    90.00 Ry     beta= 0.20
     Davidson diagonalization with overlap
     ethr =  8.70E-11,  avg # of iterations =  1.9

     total cpu time spent up to now is     4155.1 secs

     total energy              =   -2510.30065188 Ry
     estimated scf accuracy    <       0.00000555 Ry

     total magnetization       =    -0.01 Bohr mag/cell
     absolute magnetization    =     0.01 Bohr mag/cell

     iteration #121     ecut=    90.00 Ry     beta= 0.20
     Davidson diagonalization with overlap
     ethr =  8.70E-11,  avg # of iterations =  2.1

     total cpu time spent up to now is     4195.1 secs

     total energy              =   -2510.30065183 Ry
     estimated scf accuracy    <       0.00000391 Ry

     total magnetization       =    -0.00 Bohr mag/cell
     absolute magnetization    =     0.01 Bohr mag/cell

     iteration #122     ecut=    90.00 Ry     beta= 0.20
     Davidson diagonalization with overlap
     ethr =  8.70E-11,  avg # of iterations =  2.1

     total cpu time spent up to now is     4233.3 secs

     total energy              =   -2510.30065191 Ry
     estimated scf accuracy    <       0.00000131 Ry

     total magnetization       =    -0.00 Bohr mag/cell
     absolute magnetization    =     0.01 Bohr mag/cell

     iteration #123     ecut=    90.00 Ry     beta= 0.20
     Davidson diagonalization with overlap
     ethr =  8.70E-11,  avg # of iterations =  1.0

     total cpu time spent up to now is     4266.5 secs

     total energy              =   -2510.30065192 Ry
     estimated scf accuracy    <       0.00000085 Ry

     total magnetization       =    -0.00 Bohr mag/cell
     absolute magnetization    =     0.01 Bohr mag/cell

     iteration #124     ecut=    90.00 Ry     beta= 0.20
     Davidson diagonalization with overlap
     ethr =  8.70E-11,  avg # of iterations =  1.1

     total cpu time spent up to now is     4299.9 secs

     total energy              =   -2510.30065192 Ry
     estimated scf accuracy    <       0.00000036 Ry

     total magnetization       =    -0.00 Bohr mag/cell
     absolute magnetization    =     0.01 Bohr mag/cell

     iteration #125     ecut=    90.00 Ry     beta= 0.20
     Davidson diagonalization with overlap
     ethr =  8.70E-11,  avg # of iterations =  1.0

     total cpu time spent up to now is     4333.1 secs

     total energy              =   -2510.30065194 Ry
     estimated scf accuracy    <       0.00000022 Ry

     total magnetization       =     0.00 Bohr mag/cell
     absolute magnetization    =     0.01 Bohr mag/cell

     iteration #126     ecut=    90.00 Ry     beta= 0.20
     Davidson diagonalization with overlap
     ethr =  8.70E-11,  avg # of iterations =  1.1

     total cpu time spent up to now is     4366.7 secs

     total energy              =   -2510.30065195 Ry
     estimated scf accuracy    <       0.00000121 Ry

     total magnetization       =     0.00 Bohr mag/cell
     absolute magnetization    =     0.01 Bohr mag/cell

     iteration #127     ecut=    90.00 Ry     beta= 0.20
     Davidson diagonalization with overlap
     ethr =  8.70E-11,  avg # of iterations =  1.0

     total cpu time spent up to now is     4399.9 secs

     total energy              =   -2510.30065196 Ry
     estimated scf accuracy    <       0.00000041 Ry

     total magnetization       =     0.00 Bohr mag/cell
     absolute magnetization    =     0.01 Bohr mag/cell

     iteration #128     ecut=    90.00 Ry     beta= 0.20
     Davidson diagonalization with overlap
     ethr =  8.70E-11,  avg # of iterations =  1.0

     total cpu time spent up to now is     4433.1 secs

     total energy              =   -2510.30065196 Ry
     estimated scf accuracy    <       0.00000052 Ry

     total magnetization       =     0.00 Bohr mag/cell
     absolute magnetization    =     0.01 Bohr mag/cell

     iteration #129     ecut=    90.00 Ry     beta= 0.20
     Davidson diagonalization with overlap
     ethr =  8.70E-11,  avg # of iterations =  1.0

     total cpu time spent up to now is     4466.3 secs

     total energy              =   -2510.30065196 Ry
     estimated scf accuracy    <       0.00000045 Ry

     total magnetization       =     0.00 Bohr mag/cell
     absolute magnetization    =     0.01 Bohr mag/cell

     iteration #130     ecut=    90.00 Ry     beta= 0.20
     Davidson diagonalization with overlap
     ethr =  8.70E-11,  avg # of iterations =  1.0

     total cpu time spent up to now is     4499.5 secs

     total energy              =   -2510.30065196 Ry
     estimated scf accuracy    <       0.00000060 Ry

     total magnetization       =     0.00 Bohr mag/cell
     absolute magnetization    =     0.01 Bohr mag/cell

     iteration #131     ecut=    90.00 Ry     beta= 0.20
     Davidson diagonalization with overlap
     ethr =  8.70E-11,  avg # of iterations =  1.0

     total cpu time spent up to now is     4532.7 secs

     total energy              =   -2510.30065195 Ry
     estimated scf accuracy    <       0.00000073 Ry

     total magnetization       =     0.00 Bohr mag/cell
     absolute magnetization    =     0.01 Bohr mag/cell

     iteration #132     ecut=    90.00 Ry     beta= 0.20
     Davidson diagonalization with overlap
     ethr =  8.70E-11,  avg # of iterations =  1.1

     total cpu time spent up to now is     4567.7 secs

     total energy              =   -2510.30065194 Ry
     estimated scf accuracy    <       0.00000057 Ry

     total magnetization       =     0.00 Bohr mag/cell
     absolute magnetization    =     0.01 Bohr mag/cell

     iteration #133     ecut=    90.00 Ry     beta= 0.20
     Davidson diagonalization with overlap
     ethr =  8.70E-11,  avg # of iterations =  1.0

     total cpu time spent up to now is     4601.3 secs

     total energy              =   -2510.30065186 Ry
     estimated scf accuracy    <       0.00000107 Ry

     total magnetization       =     0.00 Bohr mag/cell
     absolute magnetization    =     0.01 Bohr mag/cell

     iteration #134     ecut=    90.00 Ry     beta= 0.20
     Davidson diagonalization with overlap
     ethr =  8.70E-11,  avg # of iterations =  1.1

     total cpu time spent up to now is     4635.1 secs

     total energy              =   -2510.30065187 Ry
     estimated scf accuracy    <       0.00000028 Ry

     total magnetization       =     0.00 Bohr mag/cell
     absolute magnetization    =     0.01 Bohr mag/cell

     iteration #135     ecut=    90.00 Ry     beta= 0.20
     Davidson diagonalization with overlap
     ethr =  8.70E-11,  avg # of iterations =  1.0

     total cpu time spent up to now is     4668.6 secs

     total energy              =   -2510.30065184 Ry
     estimated scf accuracy    <       0.00000026 Ry

     total magnetization       =     0.00 Bohr mag/cell
     absolute magnetization    =     0.01 Bohr mag/cell

     iteration #136     ecut=    90.00 Ry     beta= 0.20
     Davidson diagonalization with overlap
     ethr =  8.70E-11,  avg # of iterations =  1.1

     total cpu time spent up to now is     4702.4 secs

     total energy              =   -2510.30065184 Ry
     estimated scf accuracy    <       0.00000093 Ry

     total magnetization       =     0.00 Bohr mag/cell
     absolute magnetization    =     0.00 Bohr mag/cell

     iteration #137     ecut=    90.00 Ry     beta= 0.20
     Davidson diagonalization with overlap
     ethr =  8.70E-11,  avg # of iterations =  1.0

     total cpu time spent up to now is     4735.8 secs

     total energy              =   -2510.30065186 Ry
     estimated scf accuracy    <       0.00000030 Ry

     total magnetization       =     0.00 Bohr mag/cell
     absolute magnetization    =     0.00 Bohr mag/cell

     iteration #138     ecut=    90.00 Ry     beta= 0.20
     Davidson diagonalization with overlap
     ethr =  8.70E-11,  avg # of iterations =  1.0

     total cpu time spent up to now is     4769.2 secs

     total energy              =   -2510.30065187 Ry
     estimated scf accuracy    <       0.00000012 Ry

     total magnetization       =     0.00 Bohr mag/cell
     absolute magnetization    =     0.01 Bohr mag/cell

     iteration #139     ecut=    90.00 Ry     beta= 0.20
     Davidson diagonalization with overlap
     ethr =  8.70E-11,  avg # of iterations =  1.0

     total cpu time spent up to now is     4802.6 secs

     total energy              =   -2510.30065187 Ry
     estimated scf accuracy    <       0.00000012 Ry

     total magnetization       =     0.00 Bohr mag/cell
     absolute magnetization    =     0.01 Bohr mag/cell

     iteration #140     ecut=    90.00 Ry     beta= 0.20
     Davidson diagonalization with overlap
     ethr =  8.70E-11,  avg # of iterations =  1.1

     total cpu time spent up to now is     4836.1 secs

     total energy              =   -2510.30065186 Ry
     estimated scf accuracy    <       0.00000033 Ry

     total magnetization       =     0.00 Bohr mag/cell
     absolute magnetization    =     0.01 Bohr mag/cell

     iteration #141     ecut=    90.00 Ry     beta= 0.20
     Davidson diagonalization with overlap
     ethr =  8.70E-11,  avg # of iterations =  1.0

     total cpu time spent up to now is     4869.5 secs

     total energy              =   -2510.30065187 Ry
     estimated scf accuracy    <       0.00000029 Ry

     total magnetization       =     0.00 Bohr mag/cell
     absolute magnetization    =     0.01 Bohr mag/cell

     iteration #142     ecut=    90.00 Ry     beta= 0.20
     Davidson diagonalization with overlap
     ethr =  8.70E-11,  avg # of iterations =  1.0

     total cpu time spent up to now is     4902.9 secs

     total energy              =   -2510.30065188 Ry
     estimated scf accuracy    <       0.00000007 Ry

     total magnetization       =     0.00 Bohr mag/cell
     absolute magnetization    =     0.01 Bohr mag/cell

     iteration #143     ecut=    90.00 Ry     beta= 0.20
     Davidson diagonalization with overlap
     ethr =  5.46E-11,  avg # of iterations =  1.0

     total cpu time spent up to now is     4936.2 secs

     total energy              =   -2510.30065188 Ry
     estimated scf accuracy    <       0.00000039 Ry

     total magnetization       =     0.00 Bohr mag/cell
     absolute magnetization    =     0.01 Bohr mag/cell

     iteration #144     ecut=    90.00 Ry     beta= 0.20
     Davidson diagonalization with overlap
     ethr =  5.46E-11,  avg # of iterations =  1.0

     total cpu time spent up to now is     4969.6 secs

     total energy              =   -2510.30065187 Ry
     estimated scf accuracy    <       0.00000007 Ry

     total magnetization       =     0.00 Bohr mag/cell
     absolute magnetization    =     0.01 Bohr mag/cell

     iteration #145     ecut=    90.00 Ry     beta= 0.20
     Davidson diagonalization with overlap
     ethr =  5.36E-11,  avg # of iterations =  1.0

     total cpu time spent up to now is     5003.1 secs

     total energy              =   -2510.30065186 Ry
     estimated scf accuracy    <       0.00000021 Ry

     total magnetization       =     0.00 Bohr mag/cell
     absolute magnetization    =     0.01 Bohr mag/cell

     iteration #146     ecut=    90.00 Ry     beta= 0.20
     Davidson diagonalization with overlap
     ethr =  5.36E-11,  avg # of iterations =  1.0

     total cpu time spent up to now is     5036.4 secs

     total energy              =   -2510.30065187 Ry
     estimated scf accuracy    <       0.00000009 Ry

     total magnetization       =     0.00 Bohr mag/cell
     absolute magnetization    =     0.01 Bohr mag/cell

     iteration #147     ecut=    90.00 Ry     beta= 0.20
     Davidson diagonalization with overlap
     ethr =  5.36E-11,  avg # of iterations =  1.0

     total cpu time spent up to now is     5069.8 secs

     total energy              =   -2510.30065187 Ry
     estimated scf accuracy    <       0.00000008 Ry

     total magnetization       =     0.00 Bohr mag/cell
     absolute magnetization    =     0.01 Bohr mag/cell

     iteration #148     ecut=    90.00 Ry     beta= 0.20
     Davidson diagonalization with overlap
     ethr =  5.36E-11,  avg # of iterations =  1.0

     total cpu time spent up to now is     5103.2 secs

     total energy              =   -2510.30065186 Ry
     estimated scf accuracy    <       0.00000013 Ry

     total magnetization       =     0.00 Bohr mag/cell
     absolute magnetization    =     0.01 Bohr mag/cell

     iteration #149     ecut=    90.00 Ry     beta= 0.20
     Davidson diagonalization with overlap
     ethr =  5.36E-11,  avg # of iterations =  1.0

     total cpu time spent up to now is     5136.7 secs

     total energy              =   -2510.30065187 Ry
     estimated scf accuracy    <       0.00000041 Ry

     total magnetization       =     0.00 Bohr mag/cell
     absolute magnetization    =     0.01 Bohr mag/cell

     iteration #150     ecut=    90.00 Ry     beta= 0.20
     Davidson diagonalization with overlap
     ethr =  5.36E-11,  avg # of iterations =  1.0

     total cpu time spent up to now is     5170.1 secs

     total energy              =   -2510.30065188 Ry
     estimated scf accuracy    <       0.00000017 Ry

     total magnetization       =     0.00 Bohr mag/cell
     absolute magnetization    =     0.01 Bohr mag/cell

     iteration #151     ecut=    90.00 Ry     beta= 0.20
     Davidson diagonalization with overlap
     ethr =  5.36E-11,  avg # of iterations =  1.0

     total cpu time spent up to now is     5203.5 secs

     total energy              =   -2510.30065188 Ry
     estimated scf accuracy    <       0.00000010 Ry

     total magnetization       =     0.00 Bohr mag/cell
     absolute magnetization    =     0.01 Bohr mag/cell

     iteration #152     ecut=    90.00 Ry     beta= 0.20
     Davidson diagonalization with overlap
     ethr =  5.36E-11,  avg # of iterations =  1.0

     total cpu time spent up to now is     5236.9 secs

     total energy              =   -2510.30065183 Ry
     estimated scf accuracy    <       0.00000016 Ry

     total magnetization       =     0.00 Bohr mag/cell
     absolute magnetization    =     0.01 Bohr mag/cell

     iteration #153     ecut=    90.00 Ry     beta= 0.20
     Davidson diagonalization with overlap
     ethr =  5.36E-11,  avg # of iterations =  1.0

     total cpu time spent up to now is     5270.3 secs

     total energy              =   -2510.30065186 Ry
     estimated scf accuracy    <       0.00000002 Ry

     total magnetization       =     0.00 Bohr mag/cell
     absolute magnetization    =     0.00 Bohr mag/cell

     iteration #154     ecut=    90.00 Ry     beta= 0.20
     Davidson diagonalization with overlap
     ethr =  1.74E-11,  avg # of iterations =  1.1

     total cpu time spent up to now is     5303.9 secs

     total energy              =   -2510.30065185 Ry
     estimated scf accuracy    <       0.00000023 Ry

     total magnetization       =     0.00 Bohr mag/cell
     absolute magnetization    =     0.00 Bohr mag/cell

     iteration #155     ecut=    90.00 Ry     beta= 0.20
     Davidson diagonalization with overlap
     ethr =  1.74E-11,  avg # of iterations =  1.2

     total cpu time spent up to now is     5338.0 secs

     total energy              =   -2510.30065185 Ry
     estimated scf accuracy    <       0.00000006 Ry

     total magnetization       =     0.00 Bohr mag/cell
     absolute magnetization    =     0.00 Bohr mag/cell

     iteration #156     ecut=    90.00 Ry     beta= 0.20
     Davidson diagonalization with overlap
     ethr =  1.74E-11,  avg # of iterations =  1.0

     total cpu time spent up to now is     5371.5 secs

     total energy              =   -2510.30065186 Ry
     estimated scf accuracy    <       0.00000002 Ry

     total magnetization       =     0.00 Bohr mag/cell
     absolute magnetization    =     0.00 Bohr mag/cell

     iteration #157     ecut=    90.00 Ry     beta= 0.20
     Davidson diagonalization with overlap
     ethr =  1.74E-11,  avg # of iterations =  1.1

     total cpu time spent up to now is     5405.4 secs

     total energy              =   -2510.30065185 Ry
     estimated scf accuracy    <       0.00000043 Ry

     total magnetization       =     0.00 Bohr mag/cell
     absolute magnetization    =     0.00 Bohr mag/cell

     iteration #158     ecut=    90.00 Ry     beta= 0.20
     Davidson diagonalization with overlap
     ethr =  1.74E-11,  avg # of iterations =  1.0

     total cpu time spent up to now is     5438.8 secs

     total energy              =   -2510.30065186 Ry
     estimated scf accuracy    <       0.00000011 Ry

     total magnetization       =     0.00 Bohr mag/cell
     absolute magnetization    =     0.00 Bohr mag/cell

     iteration #159     ecut=    90.00 Ry     beta= 0.20
     Davidson diagonalization with overlap
     ethr =  1.74E-11,  avg # of iterations =  1.0

     total cpu time spent up to now is     5472.1 secs

     total energy              =   -2510.30065186 Ry
     estimated scf accuracy    <       0.00000005 Ry

     total magnetization       =     0.00 Bohr mag/cell
     absolute magnetization    =     0.00 Bohr mag/cell

     iteration #160     ecut=    90.00 Ry     beta= 0.20
     Davidson diagonalization with overlap
     ethr =  1.74E-11,  avg # of iterations =  1.1

     total cpu time spent up to now is     5505.6 secs

     total energy              =   -2510.30065186 Ry
     estimated scf accuracy    <       0.00000004 Ry

     total magnetization       =     0.00 Bohr mag/cell
     absolute magnetization    =     0.00 Bohr mag/cell

     iteration #161     ecut=    90.00 Ry     beta= 0.20
     Davidson diagonalization with overlap
     ethr =  1.74E-11,  avg # of iterations =  1.0

     total cpu time spent up to now is     5539.0 secs

     total energy              =   -2510.30065186 Ry
     estimated scf accuracy    <       0.00000002 Ry

     total magnetization       =     0.00 Bohr mag/cell
     absolute magnetization    =     0.00 Bohr mag/cell

     iteration #162     ecut=    90.00 Ry     beta= 0.20
     Davidson diagonalization with overlap
     ethr =  1.74E-11,  avg # of iterations =  1.0

     total cpu time spent up to now is     5572.4 secs

     total energy              =   -2510.30065186 Ry
     estimated scf accuracy    <       0.00000003 Ry

     total magnetization       =     0.00 Bohr mag/cell
     absolute magnetization    =     0.00 Bohr mag/cell

     iteration #163     ecut=    90.00 Ry     beta= 0.20
     Davidson diagonalization with overlap
     ethr =  1.74E-11,  avg # of iterations =  1.0

     total cpu time spent up to now is     5606.0 secs

     total energy              =   -2510.30065186 Ry
     estimated scf accuracy    <       0.00000002 Ry

     total magnetization       =     0.00 Bohr mag/cell
     absolute magnetization    =     0.00 Bohr mag/cell

     iteration #164     ecut=    90.00 Ry     beta= 0.20
     Davidson diagonalization with overlap
     ethr =  1.60E-11,  avg # of iterations =  1.0

     total cpu time spent up to now is     5639.5 secs

     total energy              =   -2510.30065186 Ry
     estimated scf accuracy    <       0.00000003 Ry

     total magnetization       =     0.00 Bohr mag/cell
     absolute magnetization    =     0.00 Bohr mag/cell

     iteration #165     ecut=    90.00 Ry     beta= 0.20
     Davidson diagonalization with overlap
     ethr =  1.60E-11,  avg # of iterations =  1.0

     total cpu time spent up to now is     5673.0 secs

     total energy              =   -2510.30065186 Ry
     estimated scf accuracy    <       0.00000002 Ry

     total magnetization       =     0.00 Bohr mag/cell
     absolute magnetization    =     0.00 Bohr mag/cell

     iteration #166     ecut=    90.00 Ry     beta= 0.20
     Davidson diagonalization with overlap
     ethr =  1.60E-11,  avg # of iterations =  1.0

     total cpu time spent up to now is     5706.5 secs

     total energy              =   -2510.30065185 Ry
     estimated scf accuracy    <       0.00000002 Ry

     total magnetization       =     0.00 Bohr mag/cell
     absolute magnetization    =     0.00 Bohr mag/cell

     iteration #167     ecut=    90.00 Ry     beta= 0.20
     Davidson diagonalization with overlap
     ethr =  1.60E-11,  avg # of iterations =  1.0

     total cpu time spent up to now is     5740.0 secs

     total energy              =   -2510.30065186 Ry
     estimated scf accuracy    <       0.00000006 Ry

     total magnetization       =     0.00 Bohr mag/cell
     absolute magnetization    =     0.00 Bohr mag/cell

     iteration #168     ecut=    90.00 Ry     beta= 0.20
     Davidson diagonalization with overlap
     ethr =  1.60E-11,  avg # of iterations =  1.0

     total cpu time spent up to now is     5773.5 secs

     total energy              =   -2510.30065186 Ry
     estimated scf accuracy    <       0.00000004 Ry

     total magnetization       =     0.00 Bohr mag/cell
     absolute magnetization    =     0.00 Bohr mag/cell

     iteration #169     ecut=    90.00 Ry     beta= 0.20
     Davidson diagonalization with overlap
     ethr =  1.60E-11,  avg # of iterations =  1.0

     total cpu time spent up to now is     5807.0 secs

     total energy              =   -2510.30065186 Ry
     estimated scf accuracy    <       0.00000010 Ry

     total magnetization       =     0.00 Bohr mag/cell
     absolute magnetization    =     0.00 Bohr mag/cell

     iteration #170     ecut=    90.00 Ry     beta= 0.20
     Davidson diagonalization with overlap
     ethr =  1.60E-11,  avg # of iterations =  1.1

     total cpu time spent up to now is     5840.6 secs

     total energy              =   -2510.30065186 Ry
     estimated scf accuracy    <       0.00000014 Ry

     total magnetization       =     0.00 Bohr mag/cell
     absolute magnetization    =     0.00 Bohr mag/cell

     iteration #171     ecut=    90.00 Ry     beta= 0.20
     Davidson diagonalization with overlap
     ethr =  1.60E-11,  avg # of iterations =  1.0

     total cpu time spent up to now is     5874.1 secs

     total energy              =   -2510.30065186 Ry
     estimated scf accuracy    <       0.00000002 Ry

     total magnetization       =     0.00 Bohr mag/cell
     absolute magnetization    =     0.00 Bohr mag/cell

     iteration #172     ecut=    90.00 Ry     beta= 0.20
     Davidson diagonalization with overlap
     ethr =  1.42E-11,  avg # of iterations =  1.0

     total cpu time spent up to now is     5907.6 secs

     total energy              =   -2510.30065186 Ry
     estimated scf accuracy    <       0.00000002 Ry

     total magnetization       =     0.00 Bohr mag/cell
     absolute magnetization    =     0.00 Bohr mag/cell

     iteration #173     ecut=    90.00 Ry     beta= 0.20
     Davidson diagonalization with overlap
     ethr =  1.28E-11,  avg # of iterations =  1.0

     total cpu time spent up to now is     5941.1 secs

     total energy              =   -2510.30065186 Ry
[...]

     total cpu time spent up to now is     6812.2 secs

     total energy              =   -2510.30065186 Ry
     estimated scf accuracy    <       0.00000002 Ry

     total magnetization       =     0.00 Bohr mag/cell
     absolute magnetization    =     0.00 Bohr mag/cell

     iteration #200     ecut=    90.00 Ry     beta= 0.20
     Davidson diagonalization with overlap
     ethr =  9.17E-12,  avg # of iterations =  1.0

     total cpu time spent up to now is     6845.7 secs

     total energy              =   -2510.30065186 Ry
     estimated scf accuracy    <       0.00000002 Ry

     total magnetization       =     0.00 Bohr mag/cell
     absolute magnetization    =     0.00 Bohr mag/cell

     iteration #201     ecut=    90.00 Ry     beta= 0.20
     Davidson diagonalization with overlap
     ethr =  9.17E-12,  avg # of iterations =  1.0

     total cpu time spent up to now is     6879.3 secs

     total energy              =   -2510.30065186 Ry
     estimated scf accuracy    <       0.00000006 Ry

     total magnetization       =     0.00 Bohr mag/cell
     absolute magnetization    =     0.00 Bohr mag/cell

     iteration #202     ecut=    90.00 Ry     beta= 0.20
     Davidson diagonalization with overlap
     ethr =  9.17E-12,  avg # of iterations =  1.0

     total cpu time spent up to now is     6912.7 secs

     total energy              =   -2510.30065186 Ry
     estimated scf accuracy    <       0.00000002 Ry

     total magnetization       =     0.00 Bohr mag/cell
     absolute magnetization    =     0.00 Bohr mag/cell

     iteration #203     ecut=    90.00 Ry     beta= 0.20
     Davidson diagonalization with overlap
     ethr =  9.17E-12,  avg # of iterations =  1.0

     total cpu time spent up to now is     6946.3 secs

     total energy              =   -2510.30065186 Ry
     estimated scf accuracy    <       0.00000003 Ry

     total magnetization       =     0.00 Bohr mag/cell
     absolute magnetization    =     0.00 Bohr mag/cell

     iteration #204     ecut=    90.00 Ry     beta= 0.20
     Davidson diagonalization with overlap
     ethr =  9.17E-12,  avg # of iterations =  1.0

     total cpu time spent up to now is     6979.7 secs

     total energy              =   -2510.30065186 Ry
     estimated scf accuracy    <       0.00000002 Ry

     total magnetization       =     0.00 Bohr mag/cell
     absolute magnetization    =     0.00 Bohr mag/cell

     iteration #205     ecut=    90.00 Ry     beta= 0.20
     Davidson diagonalization with overlap
     ethr =  9.17E-12,  avg # of iterations =  1.0

     total cpu time spent up to now is     7013.2 secs

     total energy              =   -2510.30065186 Ry
     estimated scf accuracy    <       0.00000003 Ry

     total magnetization       =     0.00 Bohr mag/cell
     absolute magnetization    =     0.00 Bohr mag/cell

     iteration #206     ecut=    90.00 Ry     beta= 0.20
     Davidson diagonalization with overlap
     ethr =  9.17E-12,  avg # of iterations =  1.0

     total cpu time spent up to now is     7046.7 secs

     total energy              =   -2510.30065186 Ry
     estimated scf accuracy    <       0.00000002 Ry

     total magnetization       =     0.00 Bohr mag/cell
     absolute magnetization    =     0.00 Bohr mag/cell

     iteration #207     ecut=    90.00 Ry     beta= 0.20
     Davidson diagonalization with overlap
     ethr =  9.17E-12,  avg # of iterations =  1.0

     total cpu time spent up to now is     7080.2 secs

     total energy              =   -2510.30065186 Ry
     estimated scf accuracy    <       0.00000012 Ry

     total magnetization       =     0.00 Bohr mag/cell
     absolute magnetization    =     0.00 Bohr mag/cell

     iteration #208     ecut=    90.00 Ry     beta= 0.20
     Davidson diagonalization with overlap
     ethr =  9.17E-12,  avg # of iterations =  1.0

     total cpu time spent up to now is     7113.7 secs

     total energy              =   -2510.30065186 Ry
     estimated scf accuracy    <       0.00000011 Ry

     total magnetization       =     0.00 Bohr mag/cell
     absolute magnetization    =     0.00 Bohr mag/cell

     iteration #209     ecut=    90.00 Ry     beta= 0.20
     Davidson diagonalization with overlap
     ethr =  9.17E-12,  avg # of iterations =  1.0

     total cpu time spent up to now is     7147.2 secs

     total energy              =   -2510.30065185 Ry
     estimated scf accuracy    <       0.00000002 Ry

     total magnetization       =     0.00 Bohr mag/cell
     absolute magnetization    =     0.00 Bohr mag/cell

     iteration #210     ecut=    90.00 Ry     beta= 0.20
     Davidson diagonalization with overlap
     ethr =  9.17E-12,  avg # of iterations =  1.0

     total cpu time spent up to now is     7180.7 secs

     total energy              =   -2510.30065186 Ry
     estimated scf accuracy    <       0.00000001 Ry

     total magnetization       =    -0.00 Bohr mag/cell
     absolute magnetization    =     0.00 Bohr mag/cell

     iteration #211     ecut=    90.00 Ry     beta= 0.20
     Davidson diagonalization with overlap
     ethr =  9.17E-12,  avg # of iterations =  1.0

     total cpu time spent up to now is     7214.1 secs

     total energy              =   -2510.30065186 Ry
     estimated scf accuracy    <       0.00000002 Ry

     total magnetization       =    -0.00 Bohr mag/cell
     absolute magnetization    =     0.00 Bohr mag/cell

     iteration #212     ecut=    90.00 Ry     beta= 0.20
     Davidson diagonalization with overlap
     ethr =  9.17E-12,  avg # of iterations =  1.0

     total cpu time spent up to now is     7247.7 secs

     total energy              =   -2510.30065186 Ry
     estimated scf accuracy    <       0.00000005 Ry

     total magnetization       =    -0.00 Bohr mag/cell
     absolute magnetization    =     0.00 Bohr mag/cell

     iteration #213     ecut=    90.00 Ry     beta= 0.20
     Davidson diagonalization with overlap
     ethr =  9.17E-12,  avg # of iterations =  1.0

     total cpu time spent up to now is     7281.2 secs

     total energy              =   -2510.30065186 Ry
     estimated scf accuracy    <       0.00000002 Ry

     total magnetization       =    -0.00 Bohr mag/cell
     absolute magnetization    =     0.00 Bohr mag/cell

     iteration #214     ecut=    90.00 Ry     beta= 0.20
     Davidson diagonalization with overlap
     ethr =  9.17E-12,  avg # of iterations =  1.0

     total cpu time spent up to now is     7314.7 secs

     total energy              =   -2510.30065186 Ry
     estimated scf accuracy    <       0.00000002 Ry

     total magnetization       =    -0.00 Bohr mag/cell
     absolute magnetization    =     0.00 Bohr mag/cell

     iteration #215     ecut=    90.00 Ry     beta= 0.20
     Davidson diagonalization with overlap
     ethr =  9.17E-12,  avg # of iterations =  1.0

     total cpu time spent up to now is     7348.2 secs

     total energy              =   -2510.30065186 Ry
     estimated scf accuracy    <       0.00000002 Ry

     total magnetization       =    -0.00 Bohr mag/cell
     absolute magnetization    =     0.00 Bohr mag/cell

     iteration #216     ecut=    90.00 Ry     beta= 0.20
     Davidson diagonalization with overlap
     ethr =  9.17E-12,  avg # of iterations =  1.0

     total cpu time spent up to now is     7381.8 secs

     total energy              =   -2510.30065186 Ry
     estimated scf accuracy    <       0.00000001 Ry

     total magnetization       =    -0.00 Bohr mag/cell
     absolute magnetization    =     0.00 Bohr mag/cell

     iteration #217     ecut=    90.00 Ry     beta= 0.20
     Davidson diagonalization with overlap
     ethr =  9.17E-12,  avg # of iterations =  1.0

     total cpu time spent up to now is     7415.3 secs

     total energy              =   -2510.30065186 Ry
     estimated scf accuracy    <       0.00000003 Ry

     total magnetization       =    -0.00 Bohr mag/cell
     absolute magnetization    =     0.00 Bohr mag/cell

     iteration #218     ecut=    90.00 Ry     beta= 0.20
     Davidson diagonalization with overlap
     ethr =  9.17E-12,  avg # of iterations =  1.0

     total cpu time spent up to now is     7448.8 secs

     total energy              =   -2510.30065186 Ry
     estimated scf accuracy    <       0.00000007 Ry

     total magnetization       =    -0.00 Bohr mag/cell
     absolute magnetization    =     0.00 Bohr mag/cell

     iteration #219     ecut=    90.00 Ry     beta= 0.20
     Davidson diagonalization with overlap
     ethr =  9.17E-12,  avg # of iterations =  1.0

     total cpu time spent up to now is     7482.3 secs

     total energy              =   -2510.30065186 Ry
     estimated scf accuracy    <       0.00000001 Ry

     total magnetization       =     0.00 Bohr mag/cell
     absolute magnetization    =     0.00 Bohr mag/cell

     iteration #220     ecut=    90.00 Ry     beta= 0.20
     Davidson diagonalization with overlap
     ethr =  8.20E-12,  avg # of iterations =  1.0

     total cpu time spent up to now is     7515.8 secs

     total energy              =   -2510.30065186 Ry
     estimated scf accuracy    <       0.00000002 Ry

     total magnetization       =     0.00 Bohr mag/cell
     absolute magnetization    =     0.00 Bohr mag/cell

     iteration #221     ecut=    90.00 Ry     beta= 0.20
     Davidson diagonalization with overlap
     ethr =  8.20E-12,  avg # of iterations =  1.0

     total cpu time spent up to now is     7549.3 secs

     total energy              =   -2510.30065186 Ry
     estimated scf accuracy    <       0.00000002 Ry

     total magnetization       =     0.00 Bohr mag/cell
     absolute magnetization    =     0.00 Bohr mag/cell

     iteration #222     ecut=    90.00 Ry     beta= 0.20
     Davidson diagonalization with overlap
     ethr =  8.20E-12,  avg # of iterations =  1.0

     total cpu time spent up to now is     7582.8 secs

     total energy              =   -2510.30065186 Ry
     estimated scf accuracy    <       0.00000002 Ry

     total magnetization       =     0.00 Bohr mag/cell
     absolute magnetization    =     0.00 Bohr mag/cell

     iteration #223     ecut=    90.00 Ry     beta= 0.20
     Davidson diagonalization with overlap
     ethr =  8.20E-12,  avg # of iterations =  1.0

     total cpu time spent up to now is     7616.3 secs

     total energy              =   -2510.30065186 Ry
     estimated scf accuracy    <       0.00000002 Ry

     total magnetization       =     0.00 Bohr mag/cell
     absolute magnetization    =     0.00 Bohr mag/cell

     iteration #224     ecut=    90.00 Ry     beta= 0.20
     Davidson diagonalization with overlap
     ethr =  8.20E-12,  avg # of iterations =  1.0

     total cpu time spent up to now is     7649.8 secs

     total energy              =   -2510.30065186 Ry
     estimated scf accuracy    <       0.00000005 Ry

     total magnetization       =     0.00 Bohr mag/cell
     absolute magnetization    =     0.00 Bohr mag/cell

     iteration #225     ecut=    90.00 Ry     beta= 0.20
     Davidson diagonalization with overlap
     ethr =  8.20E-12,  avg # of iterations =  1.0

     total cpu time spent up to now is     7683.3 secs

     total energy              =   -2510.30065186 Ry
     estimated scf accuracy    <       0.00000005 Ry

     total magnetization       =     0.00 Bohr mag/cell
     absolute magnetization    =     0.00 Bohr mag/cell

     iteration #226     ecut=    90.00 Ry     beta= 0.20
     Davidson diagonalization with overlap
     ethr =  8.20E-12,  avg # of iterations =  1.0

     total cpu time spent up to now is     7716.9 secs

     total energy              =   -2510.30065186 Ry
     estimated scf accuracy    <       0.00000002 Ry

     total magnetization       =     0.00 Bohr mag/cell
     absolute magnetization    =     0.00 Bohr mag/cell

     iteration #227     ecut=    90.00 Ry     beta= 0.20
     Davidson diagonalization with overlap
     ethr =  8.20E-12,  avg # of iterations =  1.0

     total cpu time spent up to now is     7750.4 secs

     total energy              =   -2510.30065186 Ry
     estimated scf accuracy    <       0.00000004 Ry

     total magnetization       =     0.00 Bohr mag/cell
     absolute magnetization    =     0.00 Bohr mag/cell

     iteration #228     ecut=    90.00 Ry     beta= 0.20
     Davidson diagonalization with overlap
     ethr =  8.20E-12,  avg # of iterations =  1.0

     total cpu time spent up to now is     7783.8 secs

     total energy              =   -2510.30065186 Ry
     estimated scf accuracy    <       0.00000002 Ry

     total magnetization       =     0.00 Bohr mag/cell
     absolute magnetization    =     0.00 Bohr mag/cell

     iteration #229     ecut=    90.00 Ry     beta= 0.20
     Davidson diagonalization with overlap
     ethr =  8.20E-12,  avg # of iterations =  1.0

     total cpu time spent up to now is     7817.4 secs

     total energy              =   -2510.30065186 Ry
     estimated scf accuracy    <       0.00000002 Ry

     total magnetization       =     0.00 Bohr mag/cell
     absolute magnetization    =     0.00 Bohr mag/cell

     iteration #230     ecut=    90.00 Ry     beta= 0.20
     Davidson diagonalization with overlap
     ethr =  8.20E-12,  avg # of iterations =  1.0

     total cpu time spent up to now is     7850.9 secs

     total energy              =   -2510.30065186 Ry
     estimated scf accuracy    <       0.00000001 Ry

     total magnetization       =     0.00 Bohr mag/cell
     absolute magnetization    =     0.00 Bohr mag/cell

     iteration #231     ecut=    90.00 Ry     beta= 0.20
     Davidson diagonalization with overlap
     ethr =  8.20E-12,  avg # of iterations =  1.0

     total cpu time spent up to now is     7884.4 secs

     total energy              =   -2510.30065186 Ry
     estimated scf accuracy    <       0.00000002 Ry

     total magnetization       =     0.00 Bohr mag/cell
     absolute magnetization    =     0.00 Bohr mag/cell

     iteration #232     ecut=    90.00 Ry     beta= 0.20
     Davidson diagonalization with overlap
     ethr =  8.20E-12,  avg # of iterations =  1.0

     total cpu time spent up to now is     7917.9 secs

     total energy              =   -2510.30065186 Ry
     estimated scf accuracy    <       0.00000002 Ry

     total magnetization       =     0.00 Bohr mag/cell
     absolute magnetization    =     0.00 Bohr mag/cell

     iteration #233     ecut=    90.00 Ry     beta= 0.20
     Davidson diagonalization with overlap
     ethr =  8.20E-12,  avg # of iterations =  1.0

     Magnetic moment per site:
     atom:    1    charge:   14.1862    magn:    0.0001    constr:    0.0000
     atom:    2    charge:   15.3427    magn:   -0.0001    constr:    0.0000
     atom:    3    charge:   14.1862    magn:   -0.0001    constr:    0.0000
     atom:    4    charge:   15.3427    magn:    0.0002    constr:    0.0000
     atom:    5    charge:   14.1862    magn:    0.0000    constr:    0.0000
     atom:    6    charge:   15.3427    magn:   -0.0002    constr:    0.0000
     atom:    7    charge:   14.1862    magn:    0.0003    constr:    0.0000
     atom:    8    charge:   15.3427    magn:    0.0003    constr:    0.0000

     total cpu time spent up to now is     7951.3 secs

     End of self-consistent calculation

     Number of k-points >= 100: set verbosity='high' to print the bands.

     the Fermi energy is    14.1917 ev

!    total energy              =   -2510.30065186 Ry
     estimated scf accuracy    <          6.7E-09 Ry
     smearing contrib. (-TS)   =      -0.02242815 Ry
     internal energy E=F+TS    =   -2510.27822371 Ry

     The total energy is F=E-TS. E is the sum of the following terms:
     one-electron contribution =   -1269.34846484 Ry
     hartree contribution      =     701.10053609 Ry
     xc contribution           =    -268.72482020 Ry
     ewald contribution        =   -1368.71912763 Ry
     one-center paw contrib.   =    -304.58634713 Ry

     total magnetization       =     0.00 Bohr mag/cell
     absolute magnetization    =     0.00 Bohr mag/cell

     convergence has been achieved in 233 iterations

     init_run     :     18.21s CPU     18.89s WALL (       1 calls)
     electrons    :   7706.60s CPU   7932.07s WALL (       1 calls)

     Called by init_run:
     wfcinit      :     16.77s CPU     17.33s WALL (       1 calls)
     potinit      :      0.51s CPU      0.54s WALL (       1 calls)
     hinit0       :      0.20s CPU      0.20s WALL (       1 calls)

     Called by electrons:
     c_bands      :   6080.97s CPU   6232.10s WALL (     233 calls)
     sum_band     :   1382.15s CPU   1436.12s WALL (     233 calls)
     v_of_rho     :     49.59s CPU     51.02s WALL (     234 calls)
     newd         :    124.01s CPU    140.51s WALL (     234 calls)
     PAW_pot      :     56.79s CPU     58.68s WALL (     234 calls)
     mix_rho      :      8.86s CPU      9.22s WALL (     233 calls)

     Called by c_bands:
     init_us_2    :    163.20s CPU    165.67s WALL (  104608 calls)
     cegterg      :   5660.82s CPU   5806.29s WALL (   52192 calls)

     Called by *egterg:
     cdiaghg      :    518.22s CPU    524.95s WALL (  110759 calls)
     h_psi        :   3640.05s CPU   3750.27s WALL (  110983 calls)
     s_psi        :    293.27s CPU    295.85s WALL (  110983 calls)
     g_psi        :     20.48s CPU     20.79s WALL (   58567 calls)

     Called by h_psi:
     h_psi:calbec :    347.60s CPU    361.52s WALL (  110983 calls)
     vloc_psi     :   2885.72s CPU   2977.92s WALL (  110983 calls)
     add_vuspsi   :    303.52s CPU    306.97s WALL (  110983 calls)

     General routines
     calbec       :    515.68s CPU    536.21s WALL (  163175 calls)
     fft          :     32.69s CPU     34.79s WALL (    5844 calls)
     ffts         :      0.45s CPU      0.47s WALL (     934 calls)
     fftw         :   3140.45s CPU   3239.29s WALL (20809234 calls)
     interpolate  :      3.32s CPU      3.53s WALL (     468 calls)

     Parallel routines
     fft_scatt_xy :    528.89s CPU    542.64s WALL (20816012 calls)
     fft_scatt_yz :    845.94s CPU    874.49s WALL (20816012 calls)

     PWSCF        :      2h 8m CPU      2h12m WALL


   This run was terminated on:  20:56:47  18Mar2022            

=------------------------------------------------------------------------------=
   JOB DONE.
=------------------------------------------------------------------------------=
Note: The following floating-point exceptions are signalling: IEEE_UNDERFLOW_FLAG IEEE_DENORMAL
Note: The following floating-point exceptions are signalling: IEEE_UNDERFLOW_FLAG IEEE_DENORMAL
Note: The following floating-point exceptions are signalling: IEEE_UNDERFLOW_FLAG IEEE_DENORMAL
Note: The following floating-point exceptions are signalling: IEEE_UNDERFLOW_FLAG IEEE_DENORMAL
Note: The following floating-point exceptions are signalling: IEEE_UNDERFLOW_FLAG IEEE_DENORMAL
Note: The following floating-point exceptions are signalling: IEEE_UNDERFLOW_FLAG IEEE_DENORMAL
Note: The following floating-point exceptions are signalling: IEEE_UNDERFLOW_FLAG IEEE_DENORMAL
Note: The following floating-point exceptions are signalling: IEEE_UNDERFLOW_FLAG IEEE_DENORMAL
Note: The following floating-point exceptions are signalling: IEEE_UNDERFLOW_FLAG IEEE_DENORMAL
Note: The following floating-point exceptions are signalling: IEEE_UNDERFLOW_FLAG IEEE_DENORMAL
Note: The following floating-point exceptions are signalling: IEEE_UNDERFLOW_FLAG IEEE_DENORMAL
Note: The following floating-point exceptions are signalling: IEEE_UNDERFLOW_FLAG IEEE_DENORMAL
Note: The following floating-point exceptions are signalling: IEEE_UNDERFLOW_FLAG IEEE_DENORMAL
Note: The following floating-point exceptions are signalling: IEEE_UNDERFLOW_FLAG IEEE_DENORMAL
Note: The following floating-point exceptions are signalling: IEEE_UNDERFLOW_FLAG IEEE_DENORMAL
Note: The following floating-point exceptions are signalling: IEEE_UNDERFLOW_FLAG IEEE_DENORMAL
