 # Cr4 Ni4
 
           8  atoms
           2  atom types
 
      0.000000000000       4.447615000000  xlo xhi
      0.000000000000       4.447615000000  ylo yhi
      0.000000000000       4.447615000000  zlo zhi
 
Masses
 
            1   51.99610000             # Cr
            2   58.69340000             # Ni
 
Atoms # atomic
 
         1    1        0.000000000000       0.000000000000       0.000000000000
         2    2        2.223807500000       2.223807500000       2.223807500000
         3    1        0.000000000000       2.223807500000       2.223807500000
         4    2        2.223807500000       0.000000000000       0.000000000000
         5    1        2.223807500000       2.223807500000       0.000000000000
         6    2        0.000000000000       0.000000000000       2.223807500000
         7    1        2.223807500000       0.000000000000       2.223807500000
         8    2        0.000000000000       2.223807500000       0.000000000000
