 # Cr4 Ni4
 
           8  atoms
           2  atom types
 
      0.000000000000       4.494432000000  xlo xhi
      0.000000000000       4.494432000000  ylo yhi
      0.000000000000       4.494432000000  zlo zhi
 
Masses
 
            1   51.99610000             # Cr
            2   58.69340000             # Ni
 
Atoms # atomic
 
         1    1        0.000000000000       0.000000000000       0.000000000000
         2    2        2.247216000000       2.247216000000       2.247216000000
         3    1        4.494432000000       2.247216000000       2.247216000000
         4    2        2.247216000000       0.000000000000       0.000000000000
         5    1        2.247216000000       2.247216000000       0.000000000000
         6    2        4.494432000000       0.000000000000       2.247216000000
         7    1        2.247216000000       4.494432000000       2.247216000000
         8    2        4.494432000000       2.247216000000       0.000000000000
