 # File generated with Atomsk by kevin on 2022-03-18 15:18:29
 
           8  atoms
           2  atom types
 
      0.000000000000       4.588066000000  xlo xhi
      0.000000000000       4.588066000000  ylo yhi
      0.000000000000       4.588066000000  zlo zhi
 
Masses
 
            1   0.00000000              # XX
            2   51.99610000             # Cr
 
Atoms # atomic
 
         1    2        0.000000000000       0.000000000000       0.000000000000
         2    5        2.294033000000       2.294033000000       2.294033000000
         3    2        0.000000000000       2.294033000000       2.294033000000
         4    5        2.294033000000       0.000000000000       0.000000000000
         5    2        2.294033000000       2.294033000000       0.000000000000
         6    5        0.000000000000       4.588066000000       2.294033000000
         7    2        2.294033000000       0.000000000000       2.294033000000
         8    5        0.000000000000       2.294033000000       4.588066000000
