LAMMPS data file

1 atoms
1 atom types

0.0 2.46365448900377 xlo xhi
0.0 2.13360351899503 ylo yhi
0.0 2.35378701798415 zlo zhi
-1.23183469151935 3.021709996123e-06 9.51565569058915e-06 xy xz yz


Atoms

1 1 0.0000000000 0.0000000000 0.0000000000
