 # H
  
           1  atoms
           1  atom types
 
      0.000000000000       2.504761666667  xlo xhi
      0.000000000000       2.077486130181  ylo yhi
      0.000000000000       2.322089589596  zlo zhi
      1.105518161872      -0.197068056255      -0.330814992241  xy xz yz
 
Masses
 
            1   1.00800000              # H
 
Atoms # atomic
 
         1    1        0.067195949561       0.124496270747       0.022282755899
