 # H
  
           1  atoms
           1  atom types
 
      0.000000000000       2.545823333333  xlo xhi
      0.000000000000       2.158219221494  ylo yhi
      0.000000000000       2.352362278411  zlo zhi
     -1.188237132047      -0.082196933184       0.003132935378  xy xz yz
 
Masses
 
            1   1.00800000              # H
 
Atoms # atomic
 
         1    1        0.115284717188       0.882887269485       0.973507492422
