 # H
  
           1  atoms
           1  atom types
 
      0.000000000000       2.545823333333  xlo xhi
      0.000000000000       2.211856239528  ylo yhi
      0.000000000000       2.431464111623  zlo zhi
     -1.260519107433      -0.057309016648      -0.024221026027  xy xz yz
 
Masses
 
            1   1.00800000              # H
 
Atoms # atomic
 
         1    1        0.068234864519       0.887852689514       0.115465816335
