 # H
  
           1  atoms
           1  atom types
 
      0.000000000000       2.422638333333  xlo xhi
      0.000000000000       2.113602320505  ylo yhi
      0.000000000000       2.344325124503  zlo zhi
     -1.184002417603       0.190820839500      -0.090008654228  xy xz yz
 
Masses
 
            1   1.00800000              # H
 
Atoms # atomic
 
         1    1        0.912127597309       0.121011118360       0.870773901722
