 # H
  
           1  atoms
           1  atom types
 
      0.000000000000       2.545823333333  xlo xhi
      0.000000000000       2.266147387055  ylo yhi
      0.000000000000       2.349821501455  zlo zhi
     -1.160082955951      -0.128825318847      -0.046015090190  xy xz yz
 
Masses
 
            1   1.00800000              # H
 
Atoms # atomic
 
         1    1        0.022547197285       0.988666674855       0.035819079527
