 # H
  
           1  atoms
           1  atom types
 
      0.000000000000       2.340515000000  xlo xhi
      0.000000000000       2.077193953383  ylo yhi
      0.000000000000       2.235448043198  zlo zhi
     -1.078552615895       0.038507373253       0.038433845336  xy xz yz
 
Masses
 
            1   1.00800000              # H
 
Atoms # atomic
 
         1    1        0.970235187052       0.082621084165       0.082219020236
