 # H
  
           1  atoms
           1  atom types
 
      0.000000000000       2.586885000000  xlo xhi
      0.000000000000       2.154815938779  ylo yhi
      0.000000000000       2.342901576285  zlo zhi
      1.155542178309      -0.175779801598      -0.142436319770  xy xz yz
 
Masses
 
            1   1.00800000              # H
 
Atoms # atomic
 
         1    1        0.016401666561       0.042766902153       0.894499895709
