 # H
  
           1  atoms
           1  atom types
 
      0.000000000000       2.586885000000  xlo xhi
      0.000000000000       2.026844068652  ylo yhi
      0.000000000000       2.346399360620  zlo zhi
      1.186270559346       0.135977134186       0.127650693149  xy xz yz
 
Masses
 
            1   1.00800000              # H
 
Atoms # atomic
 
         1    1        0.129672475711       0.082167186355       0.983511025672
