 # H
  
           1  atoms
           1  atom types
 
      0.000000000000       2.340515000000  xlo xhi
      0.000000000000       1.924303746946  ylo yhi
      0.000000000000       2.349923255151  zlo zhi
      1.008199138533       0.134522978370       0.011777231848  xy xz yz
 
Masses
 
            1   1.00800000              # H
 
Atoms # atomic
 
         1    1        0.083015416984       0.030944475658       0.942129435919
