 # H
  
           1  atoms
           1  atom types
 
      0.000000000000       2.504761666667  xlo xhi
      0.000000000000       2.216684226239  ylo yhi
      0.000000000000       2.348607489441  zlo zhi
     -1.075234268028       0.155756492572      -0.012538563066  xy xz yz
 
Masses
 
            1   1.00800000              # H
 
Atoms # atomic
 
         1    1        0.110188289529       0.065354062091       0.103139005480
