 # H
  
           1  atoms
           1  atom types
 
      0.000000000000       2.381576666667  xlo xhi
      0.000000000000       2.050659627112  ylo yhi
      0.000000000000       2.351137477676  zlo zhi
      1.170501725573      -0.024979494144       0.109100989639  xy xz yz
 
Masses
 
            1   1.00800000              # H
 
Atoms # atomic
 
         1    1        0.911034461092       0.058483700759       0.902032187884
