 # H
  
           1  atoms
           1  atom types
 
      0.000000000000       2.340515000000  xlo xhi
      0.000000000000       2.214391505567  ylo yhi
      0.000000000000       2.348959489888  zlo zhi
     -1.079948123789      -0.017718669122       0.149832585336  xy xz yz
 
Masses
 
            1   1.00800000              # H
 
Atoms # atomic
 
         1    1        0.928843092407       0.990257062407       0.958231941374
