 # H
  
           1  atoms
           1  atom types
 
      0.000000000000       2.422638333333  xlo xhi
      0.000000000000       2.011289732095  ylo yhi
      0.000000000000       2.302277109138  zlo zhi
      1.072123576766       0.005720192972      -0.238163131139  xy xz yz
 
Masses
 
            1   1.00800000              # H
 
Atoms # atomic
 
         1    1        0.876950215325       0.949089666491       0.880570555320
