 # H
  
           1  atoms
           1  atom types
 
      0.000000000000       2.381576666667  xlo xhi
      0.000000000000       2.176250515733  ylo yhi
      0.000000000000       2.345504486894  zlo zhi
     -1.154881544910      -0.166985990261       0.105350942172  xy xz yz
 
Masses
 
            1   1.00800000              # H
 
Atoms # atomic
 
         1    1        0.103934736574       0.039426800441       0.902255592872
