 # H
  
           1  atoms
           1  atom types
 
      0.000000000000       2.381576666667  xlo xhi
      0.000000000000       2.113659339135  ylo yhi
      0.000000000000       2.270330594959  zlo zhi
     -1.097429550040      -0.124968885095       0.084580629871  xy xz yz
 
Masses
 
            1   1.00800000              # H
 
Atoms # atomic
 
         1    1        0.106634991957       0.103644904820       0.123215032911
