 # H
  
           1  atoms
           1  atom types
 
      0.000000000000       2.504761666667  xlo xhi
      0.000000000000       2.068482804749  ylo yhi
      0.000000000000       2.372914235765  zlo zhi
      1.092242678030       0.207080891218       0.230191474851  xy xz yz
 
Masses
 
            1   1.00800000              # H
 
Atoms # atomic
 
         1    1        0.907229415150       0.980361430996       0.882538138209
