 # H
  
           1  atoms
           1  atom types
 
      0.000000000000       2.586885000000  xlo xhi
      0.000000000000       2.254026690470  ylo yhi
      0.000000000000       2.469824529821  zlo zhi
     -1.269384765102      -0.064986665281      -0.063295697572  xy xz yz
 
Masses
 
            1   1.00800000              # H
 
Atoms # atomic
 
         1    1        0.940257500686       0.022202661347       0.035772250588
