
     Program PWSCF v.6.7MaX starts on 16Feb2022 at 17:30:22 

     This program is part of the open-source Quantum ESPRESSO suite
     for quantum simulation of materials; please cite
         "P. Giannozzi et al., J. Phys.:Condens. Matter 21 395502 (2009);
         "P. Giannozzi et al., J. Phys.:Condens. Matter 29 465901 (2017);
          URL http://www.quantum-espresso.org", 
     in publications or presentations arising from this work. More details at
     http://www.quantum-espresso.org/quote

     Parallel version (MPI), running on    24 processors

     MPI processes distributed on     1 nodes
     R & G space division:  proc/nbgrp/npool/nimage =      24
     Reading input from /home/kevin/QE_CoCrFeMnNi/CoCrFeMnNi/Opt/binary/Opt-B1-CoFe/Mix/MD/300K_0.0001Gpa-B1-CoFe/300K_0.0001Gpa-B1-CoFe.in

     Current dimensions of program PWSCF are:
     Max number of different atomic species (ntypx) = 10
     Max number of k-points (npk) =  40000
     Max angular momentum in pseudopotentials (lmaxx) =  3

     File ./pwscf.update deleted, as requested

     File ./pwscf.md deleted, as requested
     file Fe.pbe-spn-kjpaw_psl.0.2.1.UPF: wavefunction(s)  3D renormalized

     Subspace diagonalization in iterative solution of the eigenvalue problem:
     a serial algorithm will be used

     Found symmetry operation: I + (  0.0000  0.5000 -0.5000)
     This is a supercell, fractional translations are disabled

     Parallelization info
     --------------------
     sticks:   dense  smooth     PW     G-vecs:    dense   smooth      PW
     Min         264      87     24                15912     3057     458
     Max         266      88     25                15915     3064     463
     Sum        6361    2109    593               381915    73447   11075



     bravais-lattice index     =            0
     lattice parameter (alat)  =       8.6047  a.u.
     unit-cell volume          =     637.0947 (a.u.)^3
     number of atoms/cell      =            8
     number of atomic types    =            2
     number of electrons       =       132.00
     number of Kohn-Sham states=           79
     kinetic-energy cutoff     =      90.0000  Ry
     charge density cutoff     =    1080.0000  Ry
     scf convergence threshold =      1.0E-10
     mixing beta               =       0.2000
     number of iterations used =            4  plain     mixing
     energy convergence thresh.=      0.0E+00
     force convergence thresh. =      0.0E+00
     press convergence thresh. =      0.0E+00
     Exchange-correlation= SLA  PW   PBE  PBE
                           (   1   4   3   4   0   0   0)
     nstep                     =          102


     celldm(1)=   8.604679  celldm(2)=   0.000000  celldm(3)=   0.000000
     celldm(4)=   0.000000  celldm(5)=   0.000000  celldm(6)=   0.000000

     crystal axes: (cart. coord. in units of alat)
               a(1) = (   1.000000   0.000000   0.000000 )  
               a(2) = (   0.000000   1.000000   0.000000 )  
               a(3) = (   0.000000   0.000000   1.000000 )  

     reciprocal axes: (cart. coord. in units 2 pi/alat)
               b(1) = (  1.000000  0.000000  0.000000 )  
               b(2) = (  0.000000  1.000000  0.000000 )  
               b(3) = (  0.000000  0.000000  1.000000 )  


     PseudoPot. # 1 for Fe read from file:
     /opt/QEpot/SSSP_efficiency_pseudos/Fe.pbe-spn-kjpaw_psl.0.2.1.UPF
     MD5 check sum: e86618425769142926afa95317d90200
     Pseudo is Projector augmented-wave + core cor, Zval = 16.0
     Generated using "atomic" code by A. Dal Corso  v.5.0.99 svn rev. 10869
     Shape of augmentation charge: PSQ
     Using radial grid of 1191 points,  6 beta functions with: 
                l(1) =   0
                l(2) =   0
                l(3) =   1
                l(4) =   1
                l(5) =   2
                l(6) =   2
     Q(r) pseudized with 0 coefficients 


     PseudoPot. # 2 for Co read from file:
     /opt/QEpot/SSSP_efficiency_pseudos/Co_pbe_v1.2.uspp.F.UPF
     MD5 check sum: 5f91765df6ddd3222702df6e7b74a16d
     Pseudo is Ultrasoft + core correction, Zval = 17.0
     Generated by new atomic code, or converted to UPF format
     Using radial grid of  863 points,  6 beta functions with: 
                l(1) =   0
                l(2) =   0
                l(3) =   1
                l(4) =   1
                l(5) =   2
                l(6) =   2
     Q(r) pseudized with  8 coefficients,  rinner =    1.200   1.200   1.200
                                                       1.200   1.200

     atomic species   valence    mass     pseudopotential
        Fe            16.00    55.84500     Fe( 1.00)
        Co            17.00    58.93300     Co( 1.00)

      cell mass =  34.88833 AMU 

     Starting magnetic structure 
     atomic species   magnetization
        Fe           0.200
        Co           0.200

     No symmetry found



   Cartesian axes

     site n.     atom                  positions (alat units)
         1           Fe  tau(   1) = (   0.0000000   0.5000000   0.0000000  )
         2           Co  tau(   2) = (   0.5000000   0.0000000   0.5000000  )
         3           Fe  tau(   3) = (   0.0000000   0.0000000   0.5000000  )
         4           Co  tau(   4) = (   0.5000000   0.5000000   0.0000000  )
         5           Fe  tau(   5) = (   0.5000000   0.0000000   0.0000000  )
         6           Co  tau(   6) = (   0.0000000   0.5000000   0.5000000  )
         7           Fe  tau(   7) = (   0.5000000   0.5000000   0.5000000  )
         8           Co  tau(   8) = (   0.0000000   0.0000000   0.0000000  )

     number of k points=   112  Gaussian smearing, width (Ry)=  0.0100

     Number of k-points >= 100: set verbosity='high' to print them.

     Dense  grid:   381915 G-vectors     FFT dimensions: (  96,  96,  96)

     Smooth grid:    73447 G-vectors     FFT dimensions: (  54,  54,  54)

     Estimated max dynamical RAM per process >     176.08 MB

     Estimated total dynamical RAM >       4.13 GB

     Check: negative core charge=   -0.000013
     Generating pointlists ...
     new r_m :   0.2063 (alat units)  1.7747 (a.u.) for type    1
     new r_m :   0.2063 (alat units)  1.7747 (a.u.) for type    2

     Initial potential from superposition of free atoms

     starting charge  127.99822, renormalised to  132.00000
     Starting wfcs are  104 randomized atomic wfcs
     Checking if some PAW data can be deallocated... 

     total cpu time spent up to now is       27.4 secs

     Self-consistent Calculation

     iteration #  1     ecut=    90.00 Ry     beta= 0.20
     CG style diagonalization
     ethr =  1.00E-02,  avg # of iterations =  2.6

     total cpu time spent up to now is       75.3 secs

     total energy              =   -2506.78548890 Ry
     estimated scf accuracy    <      20.51430400 Ry

     total magnetization       =    18.67 Bohr mag/cell
     absolute magnetization    =    18.72 Bohr mag/cell

     iteration #  2     ecut=    90.00 Ry     beta= 0.20
     CG style diagonalization
     ethr =  1.00E-02,  avg # of iterations =  3.4

     total cpu time spent up to now is      132.9 secs

     total energy              =   -2508.58153124 Ry
     estimated scf accuracy    <      22.94571048 Ry

     total magnetization       =    13.72 Bohr mag/cell
     absolute magnetization    =    13.72 Bohr mag/cell

     iteration #  3     ecut=    90.00 Ry     beta= 0.20
     CG style diagonalization
     ethr =  1.00E-02,  avg # of iterations =  3.1

     total cpu time spent up to now is      185.6 secs

     total energy              =   -2510.20718952 Ry
     estimated scf accuracy    <       1.83074823 Ry

     total magnetization       =    19.26 Bohr mag/cell
     absolute magnetization    =    19.38 Bohr mag/cell

     iteration #  4     ecut=    90.00 Ry     beta= 0.20
     CG style diagonalization
     ethr =  1.39E-03,  avg # of iterations =  3.2

     negative rho (up, down):  0.000E+00 2.925E-05

     total cpu time spent up to now is      240.1 secs

     total energy              =   -2510.45855071 Ry
     estimated scf accuracy    <       0.34185926 Ry

     total magnetization       =    17.99 Bohr mag/cell
     absolute magnetization    =    18.22 Bohr mag/cell

     iteration #  5     ecut=    90.00 Ry     beta= 0.20
     CG style diagonalization
     ethr =  2.59E-04,  avg # of iterations =  3.2

     negative rho (up, down):  0.000E+00 7.873E-05

     total cpu time spent up to now is      293.9 secs

     total energy              =   -2510.51754999 Ry
     estimated scf accuracy    <       0.07297406 Ry

     total magnetization       =    18.23 Bohr mag/cell
     absolute magnetization    =    18.50 Bohr mag/cell

     iteration #  6     ecut=    90.00 Ry     beta= 0.20
     CG style diagonalization
     ethr =  5.53E-05,  avg # of iterations =  3.4

     negative rho (up, down):  0.000E+00 1.489E-04

     total cpu time spent up to now is      352.0 secs

     total energy              =   -2510.57152106 Ry
     estimated scf accuracy    <       0.25988127 Ry

     total magnetization       =    17.48 Bohr mag/cell
     absolute magnetization    =    17.84 Bohr mag/cell

     iteration #  7     ecut=    90.00 Ry     beta= 0.20
     CG style diagonalization
     ethr =  5.53E-05,  avg # of iterations =  3.1

     negative rho (up, down):  0.000E+00 1.714E-04

     total cpu time spent up to now is      404.9 secs

     total energy              =   -2510.55062902 Ry
     estimated scf accuracy    <       0.86521407 Ry

     total magnetization       =    16.12 Bohr mag/cell
     absolute magnetization    =    16.59 Bohr mag/cell

     iteration #  8     ecut=    90.00 Ry     beta= 0.20
     CG style diagonalization
     ethr =  5.53E-05,  avg # of iterations =  3.2

     negative rho (up, down):  0.000E+00 1.993E-04

     total cpu time spent up to now is      459.9 secs

     total energy              =   -2510.57823469 Ry
     estimated scf accuracy    <       0.11442979 Ry

     total magnetization       =    16.32 Bohr mag/cell
     absolute magnetization    =    16.85 Bohr mag/cell

     iteration #  9     ecut=    90.00 Ry     beta= 0.20
     CG style diagonalization
     ethr =  5.53E-05,  avg # of iterations =  3.0

     negative rho (up, down):  0.000E+00 2.041E-04

     total cpu time spent up to now is      510.7 secs

     total energy              =   -2510.58429669 Ry
     estimated scf accuracy    <       0.03695048 Ry

     total magnetization       =    15.96 Bohr mag/cell
     absolute magnetization    =    16.56 Bohr mag/cell

     iteration # 10     ecut=    90.00 Ry     beta= 0.20
     CG style diagonalization
     ethr =  2.80E-05,  avg # of iterations =  3.0

     negative rho (up, down):  0.000E+00 1.994E-04

     total cpu time spent up to now is      562.2 secs

     total energy              =   -2510.58798539 Ry
     estimated scf accuracy    <       0.00812769 Ry

     total magnetization       =    15.76 Bohr mag/cell
     absolute magnetization    =    16.39 Bohr mag/cell

     iteration # 11     ecut=    90.00 Ry     beta= 0.20
     CG style diagonalization
     c_bands:  1 eigenvalues not converged
     c_bands:  1 eigenvalues not converged
     c_bands:  1 eigenvalues not converged
     c_bands:  1 eigenvalues not converged
     c_bands:  1 eigenvalues not converged
     ethr =  6.16E-06,  avg # of iterations =  4.2

     negative rho (up, down):  0.000E+00 1.920E-04

     total cpu time spent up to now is      633.1 secs

     total energy              =   -2510.59324349 Ry
     estimated scf accuracy    <       0.01231323 Ry

     total magnetization       =    15.68 Bohr mag/cell
     absolute magnetization    =    16.30 Bohr mag/cell

     iteration # 12     ecut=    90.00 Ry     beta= 0.20
     CG style diagonalization
     c_bands:  1 eigenvalues not converged
     ethr =  6.16E-06,  avg # of iterations =  3.2

     negative rho (up, down):  0.000E+00 1.896E-04

     total cpu time spent up to now is      686.7 secs

     total energy              =   -2510.59421159 Ry
     estimated scf accuracy    <       0.00712211 Ry

     total magnetization       =    15.52 Bohr mag/cell
     absolute magnetization    =    16.13 Bohr mag/cell

     iteration # 13     ecut=    90.00 Ry     beta= 0.20
     CG style diagonalization
     c_bands:  1 eigenvalues not converged
     ethr =  5.40E-06,  avg # of iterations =  3.0

     negative rho (up, down):  0.000E+00 1.709E-04

     total cpu time spent up to now is      737.9 secs

     total energy              =   -2510.59461804 Ry
     estimated scf accuracy    <       0.00732400 Ry

     total magnetization       =    15.52 Bohr mag/cell
     absolute magnetization    =    16.12 Bohr mag/cell

     iteration # 14     ecut=    90.00 Ry     beta= 0.20
     CG style diagonalization
     ethr =  5.40E-06,  avg # of iterations =  3.2

     negative rho (up, down):  0.000E+00 1.654E-04

     total cpu time spent up to now is      792.1 secs

     total energy              =   -2510.59610982 Ry
     estimated scf accuracy    <       0.00175411 Ry

     total magnetization       =    15.25 Bohr mag/cell
     absolute magnetization    =    15.83 Bohr mag/cell

     iteration # 15     ecut=    90.00 Ry     beta= 0.20
     CG style diagonalization
     c_bands:  1 eigenvalues not converged
     c_bands:  1 eigenvalues not converged
     c_bands:  1 eigenvalues not converged
     c_bands:  1 eigenvalues not converged
     c_bands:  1 eigenvalues not converged
     c_bands:  1 eigenvalues not converged
     c_bands:  1 eigenvalues not converged
     ethr =  1.33E-06,  avg # of iterations =  3.6

     negative rho (up, down):  0.000E+00 1.667E-04

     total cpu time spent up to now is      853.5 secs

     total energy              =   -2510.59633685 Ry
     estimated scf accuracy    <       0.00710253 Ry

     total magnetization       =    15.25 Bohr mag/cell
     absolute magnetization    =    15.82 Bohr mag/cell

     iteration # 16     ecut=    90.00 Ry     beta= 0.20
     CG style diagonalization
     ethr =  1.33E-06,  avg # of iterations =  3.3

     negative rho (up, down):  0.000E+00 1.629E-04

     total cpu time spent up to now is      908.8 secs

     total energy              =   -2510.59686585 Ry
     estimated scf accuracy    <       0.00071229 Ry

     total magnetization       =    15.26 Bohr mag/cell
     absolute magnetization    =    15.83 Bohr mag/cell

     iteration # 17     ecut=    90.00 Ry     beta= 0.20
     CG style diagonalization
     ethr =  5.40E-07,  avg # of iterations =  3.3

     negative rho (up, down):  0.000E+00 1.617E-04

     total cpu time spent up to now is      964.8 secs

     total energy              =   -2510.59701971 Ry
     estimated scf accuracy    <       0.00077487 Ry

     total magnetization       =    15.24 Bohr mag/cell
     absolute magnetization    =    15.80 Bohr mag/cell

     iteration # 18     ecut=    90.00 Ry     beta= 0.20
     CG style diagonalization
     ethr =  5.40E-07,  avg # of iterations =  3.1

     negative rho (up, down):  0.000E+00 1.584E-04

     total cpu time spent up to now is     1017.3 secs

     total energy              =   -2510.59722214 Ry
     estimated scf accuracy    <       0.00038769 Ry

     total magnetization       =    15.25 Bohr mag/cell
     absolute magnetization    =    15.80 Bohr mag/cell

     iteration # 19     ecut=    90.00 Ry     beta= 0.20
     CG style diagonalization
     c_bands:  1 eigenvalues not converged
     ethr =  2.94E-07,  avg # of iterations =  3.2

     negative rho (up, down):  0.000E+00 1.587E-04

     total cpu time spent up to now is     1070.6 secs

     total energy              =   -2510.59724700 Ry
     estimated scf accuracy    <       0.00043567 Ry

     total magnetization       =    15.26 Bohr mag/cell
     absolute magnetization    =    15.80 Bohr mag/cell

     iteration # 20     ecut=    90.00 Ry     beta= 0.20
     CG style diagonalization
     c_bands:  1 eigenvalues not converged
     ethr =  2.94E-07,  avg # of iterations =  3.0

     negative rho (up, down):  0.000E+00 1.533E-04

     total cpu time spent up to now is     1122.1 secs

     total energy              =   -2510.59741515 Ry
     estimated scf accuracy    <       0.00016130 Ry

     total magnetization       =    15.25 Bohr mag/cell
     absolute magnetization    =    15.80 Bohr mag/cell

     iteration # 21     ecut=    90.00 Ry     beta= 0.20
     CG style diagonalization
     c_bands:  1 eigenvalues not converged
     ethr =  1.22E-07,  avg # of iterations =  3.5

     negative rho (up, down):  0.000E+00 1.552E-04

     total cpu time spent up to now is     1181.4 secs

     total energy              =   -2510.59738958 Ry
     estimated scf accuracy    <       0.00035720 Ry

     total magnetization       =    15.26 Bohr mag/cell
     absolute magnetization    =    15.78 Bohr mag/cell

     iteration # 22     ecut=    90.00 Ry     beta= 0.20
     CG style diagonalization
     c_bands:  1 eigenvalues not converged
     ethr =  1.22E-07,  avg # of iterations =  3.3

     negative rho (up, down):  0.000E+00 1.526E-04

     total cpu time spent up to now is     1236.7 secs

     total energy              =   -2510.59747748 Ry
     estimated scf accuracy    <       0.00019806 Ry

     total magnetization       =    15.26 Bohr mag/cell
     absolute magnetization    =    15.80 Bohr mag/cell

     iteration # 23     ecut=    90.00 Ry     beta= 0.20
     CG style diagonalization
     ethr =  1.22E-07,  avg # of iterations =  3.1

     negative rho (up, down):  0.000E+00 1.528E-04

     total cpu time spent up to now is     1288.4 secs

     total energy              =   -2510.59747734 Ry
     estimated scf accuracy    <       0.00019625 Ry

     total magnetization       =    15.27 Bohr mag/cell
     absolute magnetization    =    15.79 Bohr mag/cell

     iteration # 24     ecut=    90.00 Ry     beta= 0.20
     CG style diagonalization
     ethr =  1.22E-07,  avg # of iterations =  3.0

     negative rho (up, down):  0.000E+00 1.508E-04

     total cpu time spent up to now is     1339.0 secs

     total energy              =   -2510.59752244 Ry
     estimated scf accuracy    <       0.00017210 Ry

     total magnetization       =    15.26 Bohr mag/cell
     absolute magnetization    =    15.79 Bohr mag/cell

     iteration # 25     ecut=    90.00 Ry     beta= 0.20
     CG style diagonalization
     ethr =  1.22E-07,  avg # of iterations =  3.0

     negative rho (up, down):  0.000E+00 1.516E-04

     total cpu time spent up to now is     1389.4 secs

     total energy              =   -2510.59751701 Ry
     estimated scf accuracy    <       0.00009054 Ry

     total magnetization       =    15.27 Bohr mag/cell
     absolute magnetization    =    15.79 Bohr mag/cell

     iteration # 26     ecut=    90.00 Ry     beta= 0.20
     CG style diagonalization
     ethr =  6.86E-08,  avg # of iterations =  3.0

     negative rho (up, down):  0.000E+00 1.498E-04

     total cpu time spent up to now is     1439.7 secs

     total energy              =   -2510.59755009 Ry
     estimated scf accuracy    <       0.00005424 Ry

     total magnetization       =    15.27 Bohr mag/cell
     absolute magnetization    =    15.79 Bohr mag/cell

     iteration # 27     ecut=    90.00 Ry     beta= 0.20
     CG style diagonalization
     c_bands:  1 eigenvalues not converged
     ethr =  4.11E-08,  avg # of iterations =  3.0

     negative rho (up, down):  0.000E+00 1.502E-04

     total cpu time spent up to now is     1490.5 secs

     total energy              =   -2510.59754662 Ry
     estimated scf accuracy    <       0.00003675 Ry

     total magnetization       =    15.27 Bohr mag/cell
     absolute magnetization    =    15.79 Bohr mag/cell

     iteration # 28     ecut=    90.00 Ry     beta= 0.20
     CG style diagonalization
     c_bands:  1 eigenvalues not converged
     ethr =  2.78E-08,  avg # of iterations =  3.0

     negative rho (up, down):  0.000E+00 1.493E-04

     total cpu time spent up to now is     1541.6 secs

     total energy              =   -2510.59756051 Ry
     estimated scf accuracy    <       0.00005848 Ry

     total magnetization       =    15.27 Bohr mag/cell
     absolute magnetization    =    15.79 Bohr mag/cell

     iteration # 29     ecut=    90.00 Ry     beta= 0.20
     CG style diagonalization
     ethr =  2.78E-08,  avg # of iterations =  3.0

     negative rho (up, down):  0.000E+00 1.487E-04

     total cpu time spent up to now is     1592.3 secs

     total energy              =   -2510.59756991 Ry
     estimated scf accuracy    <       0.00002523 Ry

     total magnetization       =    15.27 Bohr mag/cell
     absolute magnetization    =    15.79 Bohr mag/cell

     iteration # 30     ecut=    90.00 Ry     beta= 0.20
     CG style diagonalization
     c_bands:  1 eigenvalues not converged
     ethr =  1.91E-08,  avg # of iterations =  3.0

     negative rho (up, down):  0.000E+00 1.485E-04

     total cpu time spent up to now is     1643.1 secs

     total energy              =   -2510.59757305 Ry
     estimated scf accuracy    <       0.00003586 Ry

     total magnetization       =    15.27 Bohr mag/cell
     absolute magnetization    =    15.78 Bohr mag/cell

     iteration # 31     ecut=    90.00 Ry     beta= 0.20
     CG style diagonalization
     c_bands:  1 eigenvalues not converged
     ethr =  1.91E-08,  avg # of iterations =  3.0

     negative rho (up, down):  0.000E+00 1.487E-04

     total cpu time spent up to now is     1693.6 secs

     total energy              =   -2510.59757250 Ry
     estimated scf accuracy    <       0.00001330 Ry

     total magnetization       =    15.27 Bohr mag/cell
     absolute magnetization    =    15.78 Bohr mag/cell

     iteration # 32     ecut=    90.00 Ry     beta= 0.20
     CG style diagonalization
     c_bands:  1 eigenvalues not converged
     ethr =  1.01E-08,  avg # of iterations =  3.1

     negative rho (up, down):  0.000E+00 1.482E-04

     total cpu time spent up to now is     1744.8 secs

     total energy              =   -2510.59757848 Ry
     estimated scf accuracy    <       0.00001963 Ry

     total magnetization       =    15.27 Bohr mag/cell
     absolute magnetization    =    15.78 Bohr mag/cell

     iteration # 33     ecut=    90.00 Ry     beta= 0.20
     CG style diagonalization
     c_bands:  1 eigenvalues not converged
     ethr =  1.01E-08,  avg # of iterations =  3.1

     negative rho (up, down):  0.000E+00 1.481E-04

     total cpu time spent up to now is     1796.0 secs

     total energy              =   -2510.59759767 Ry
     estimated scf accuracy    <       0.00000622 Ry

     total magnetization       =    15.28 Bohr mag/cell
     absolute magnetization    =    15.78 Bohr mag/cell

     iteration # 34     ecut=    90.00 Ry     beta= 0.20
     CG style diagonalization
     c_bands:  1 eigenvalues not converged
     ethr =  4.71E-09,  avg # of iterations =  3.2

     negative rho (up, down):  0.000E+00 1.481E-04

     total cpu time spent up to now is     1849.5 secs

     total energy              =   -2510.59759895 Ry
     estimated scf accuracy    <       0.00000638 Ry

     total magnetization       =    15.28 Bohr mag/cell
     absolute magnetization    =    15.78 Bohr mag/cell

     iteration # 35     ecut=    90.00 Ry     beta= 0.20
     CG style diagonalization
     c_bands:  2 eigenvalues not converged
     ethr =  4.71E-09,  avg # of iterations =  3.1

     negative rho (up, down):  0.000E+00 1.479E-04

     total cpu time spent up to now is     1901.0 secs

     total energy              =   -2510.59760100 Ry
     estimated scf accuracy    <       0.00000392 Ry

     total magnetization       =    15.28 Bohr mag/cell
     absolute magnetization    =    15.78 Bohr mag/cell

     iteration # 36     ecut=    90.00 Ry     beta= 0.20
     CG style diagonalization
     ethr =  2.97E-09,  avg # of iterations =  3.1

     negative rho (up, down):  0.000E+00 1.476E-04

     total cpu time spent up to now is     1952.7 secs

     total energy              =   -2510.59760327 Ry
     estimated scf accuracy    <       0.00000315 Ry

     total magnetization       =    15.28 Bohr mag/cell
     absolute magnetization    =    15.78 Bohr mag/cell

     iteration # 37     ecut=    90.00 Ry     beta= 0.20
     CG style diagonalization
     ethr =  2.39E-09,  avg # of iterations =  3.1

     negative rho (up, down):  0.000E+00 1.471E-04

     total cpu time spent up to now is     2004.9 secs

     total energy              =   -2510.59760550 Ry
     estimated scf accuracy    <       0.00000456 Ry

     total magnetization       =    15.28 Bohr mag/cell
     absolute magnetization    =    15.78 Bohr mag/cell

     iteration # 38     ecut=    90.00 Ry     beta= 0.20
     CG style diagonalization
     ethr =  2.39E-09,  avg # of iterations =  3.3

     negative rho (up, down):  0.000E+00 1.473E-04

     total cpu time spent up to now is     2060.0 secs

     total energy              =   -2510.59760487 Ry
     estimated scf accuracy    <       0.00000685 Ry

     total magnetization       =    15.28 Bohr mag/cell
     absolute magnetization    =    15.78 Bohr mag/cell

     iteration # 39     ecut=    90.00 Ry     beta= 0.20
     CG style diagonalization
     c_bands:  1 eigenvalues not converged
     ethr =  2.39E-09,  avg # of iterations =  3.2

     negative rho (up, down):  0.000E+00 1.471E-04

     total cpu time spent up to now is     2113.4 secs

     total energy              =   -2510.59760595 Ry
     estimated scf accuracy    <       0.00000602 Ry

     total magnetization       =    15.28 Bohr mag/cell
     absolute magnetization    =    15.78 Bohr mag/cell

     iteration # 40     ecut=    90.00 Ry     beta= 0.20
     CG style diagonalization
     c_bands:  1 eigenvalues not converged
     ethr =  2.39E-09,  avg # of iterations =  3.1

     negative rho (up, down):  0.000E+00 1.470E-04

     total cpu time spent up to now is     2164.5 secs

     total energy              =   -2510.59760642 Ry
     estimated scf accuracy    <       0.00000810 Ry

     total magnetization       =    15.28 Bohr mag/cell
     absolute magnetization    =    15.78 Bohr mag/cell

     iteration # 41     ecut=    90.00 Ry     beta= 0.20
     CG style diagonalization
     ethr =  2.39E-09,  avg # of iterations =  3.0

     negative rho (up, down):  0.000E+00 1.471E-04

     total cpu time spent up to now is     2214.7 secs

     total energy              =   -2510.59760635 Ry
     estimated scf accuracy    <       0.00000326 Ry

     total magnetization       =    15.28 Bohr mag/cell
     absolute magnetization    =    15.78 Bohr mag/cell

     iteration # 42     ecut=    90.00 Ry     beta= 0.20
     CG style diagonalization
     ethr =  2.39E-09,  avg # of iterations =  3.0

     negative rho (up, down):  0.000E+00 1.470E-04

     total cpu time spent up to now is     2264.9 secs

     total energy              =   -2510.59760676 Ry
     estimated scf accuracy    <       0.00000114 Ry

     total magnetization       =    15.28 Bohr mag/cell
     absolute magnetization    =    15.78 Bohr mag/cell

     iteration # 43     ecut=    90.00 Ry     beta= 0.20
     CG style diagonalization
     ethr =  8.61E-10,  avg # of iterations =  3.0

     negative rho (up, down):  0.000E+00 1.469E-04

     total cpu time spent up to now is     2314.8 secs

     total energy              =   -2510.59760717 Ry
     estimated scf accuracy    <       0.00000071 Ry

     total magnetization       =    15.28 Bohr mag/cell
     absolute magnetization    =    15.78 Bohr mag/cell

     iteration # 44     ecut=    90.00 Ry     beta= 0.20
     CG style diagonalization
     c_bands:  1 eigenvalues not converged
     ethr =  5.40E-10,  avg # of iterations =  3.0

     negative rho (up, down):  0.000E+00 1.469E-04

     total cpu time spent up to now is     2364.8 secs

     total energy              =   -2510.59760725 Ry
     estimated scf accuracy    <       0.00000056 Ry

     total magnetization       =    15.28 Bohr mag/cell
     absolute magnetization    =    15.78 Bohr mag/cell

     iteration # 45     ecut=    90.00 Ry     beta= 0.20
     CG style diagonalization
     c_bands:  1 eigenvalues not converged
     ethr =  4.23E-10,  avg # of iterations =  3.1

     negative rho (up, down):  0.000E+00 1.468E-04

     total cpu time spent up to now is     2415.7 secs

     total energy              =   -2510.59760741 Ry
     estimated scf accuracy    <       0.00000122 Ry

     total magnetization       =    15.28 Bohr mag/cell
     absolute magnetization    =    15.78 Bohr mag/cell

     iteration # 46     ecut=    90.00 Ry     beta= 0.20
     CG style diagonalization
     c_bands:  1 eigenvalues not converged
     ethr =  4.23E-10,  avg # of iterations =  3.0

     negative rho (up, down):  0.000E+00 1.467E-04

     total cpu time spent up to now is     2465.9 secs

     total energy              =   -2510.59760767 Ry
     estimated scf accuracy    <       0.00000061 Ry

     total magnetization       =    15.28 Bohr mag/cell
     absolute magnetization    =    15.78 Bohr mag/cell

     iteration # 47     ecut=    90.00 Ry     beta= 0.20
     CG style diagonalization
     c_bands:  1 eigenvalues not converged
     ethr =  4.23E-10,  avg # of iterations =  3.3

     negative rho (up, down):  0.000E+00 1.467E-04

     total cpu time spent up to now is     2519.8 secs

     total energy              =   -2510.59760761 Ry
     estimated scf accuracy    <       0.00000099 Ry

     total magnetization       =    15.28 Bohr mag/cell
     absolute magnetization    =    15.78 Bohr mag/cell

     iteration # 48     ecut=    90.00 Ry     beta= 0.20
     CG style diagonalization
     ethr =  4.23E-10,  avg # of iterations =  3.1

     negative rho (up, down):  0.000E+00 1.468E-04

     total cpu time spent up to now is     2571.1 secs

     total energy              =   -2510.59760760 Ry
     estimated scf accuracy    <       0.00000072 Ry

     total magnetization       =    15.28 Bohr mag/cell
     absolute magnetization    =    15.78 Bohr mag/cell

     iteration # 49     ecut=    90.00 Ry     beta= 0.20
     CG style diagonalization
     ethr =  4.23E-10,  avg # of iterations =  3.0

     negative rho (up, down):  0.000E+00 1.467E-04

     total cpu time spent up to now is     2620.6 secs

     total energy              =   -2510.59760773 Ry
     estimated scf accuracy    <       0.00000040 Ry

     total magnetization       =    15.28 Bohr mag/cell
     absolute magnetization    =    15.78 Bohr mag/cell

     iteration # 50     ecut=    90.00 Ry     beta= 0.20
     CG style diagonalization
     ethr =  3.04E-10,  avg # of iterations =  3.0

     negative rho (up, down):  0.000E+00 1.466E-04

     total cpu time spent up to now is     2670.0 secs

     total energy              =   -2510.59760780 Ry
     estimated scf accuracy    <       0.00000016 Ry

     total magnetization       =    15.28 Bohr mag/cell
     absolute magnetization    =    15.78 Bohr mag/cell

     iteration # 51     ecut=    90.00 Ry     beta= 0.20
     CG style diagonalization
     c_bands:  1 eigenvalues not converged
     c_bands:  1 eigenvalues not converged
     ethr =  1.19E-10,  avg # of iterations =  3.1

     negative rho (up, down):  0.000E+00 1.467E-04

     total cpu time spent up to now is     2741.7 secs

     total energy              =   -2510.59760776 Ry
     estimated scf accuracy    <       0.00000017 Ry

     total magnetization       =    15.28 Bohr mag/cell
     absolute magnetization    =    15.78 Bohr mag/cell

     iteration # 52     ecut=    90.00 Ry     beta= 0.20
     CG style diagonalization
     c_bands:  1 eigenvalues not converged
     c_bands:  1 eigenvalues not converged
     ethr =  1.19E-10,  avg # of iterations =  3.1

     negative rho (up, down):  0.000E+00 1.466E-04

     total cpu time spent up to now is     2794.8 secs

     total energy              =   -2510.59760783 Ry
     estimated scf accuracy    <       0.00000017 Ry

     total magnetization       =    15.28 Bohr mag/cell
     absolute magnetization    =    15.78 Bohr mag/cell

     iteration # 53     ecut=    90.00 Ry     beta= 0.20
     CG style diagonalization
     ethr =  1.19E-10,  avg # of iterations =  3.1

     negative rho (up, down):  0.000E+00 1.466E-04

     total cpu time spent up to now is     2847.5 secs

     total energy              =   -2510.59760785 Ry
     estimated scf accuracy    <       0.00000007 Ry

     total magnetization       =    15.28 Bohr mag/cell
     absolute magnetization    =    15.78 Bohr mag/cell

     iteration # 54     ecut=    90.00 Ry     beta= 0.20
     CG style diagonalization
     ethr =  5.61E-11,  avg # of iterations =  3.1

     negative rho (up, down):  0.000E+00 1.466E-04

     total cpu time spent up to now is     2900.0 secs

     total energy              =   -2510.59760785 Ry
     estimated scf accuracy    <       0.00000009 Ry

     total magnetization       =    15.28 Bohr mag/cell
     absolute magnetization    =    15.78 Bohr mag/cell

     iteration # 55     ecut=    90.00 Ry     beta= 0.20
     CG style diagonalization
     ethr =  5.61E-11,  avg # of iterations =  3.1

     negative rho (up, down):  0.000E+00 1.466E-04

     total cpu time spent up to now is     2952.5 secs

     total energy              =   -2510.59760785 Ry
     estimated scf accuracy    <       0.00000016 Ry

     total magnetization       =    15.28 Bohr mag/cell
     absolute magnetization    =    15.78 Bohr mag/cell

     iteration # 56     ecut=    90.00 Ry     beta= 0.20
     CG style diagonalization
     ethr =  5.61E-11,  avg # of iterations =  3.0

     negative rho (up, down):  0.000E+00 1.466E-04

     total cpu time spent up to now is     3003.6 secs

     total energy              =   -2510.59760786 Ry
     estimated scf accuracy    <       0.00000002 Ry

     total magnetization       =    15.28 Bohr mag/cell
     absolute magnetization    =    15.78 Bohr mag/cell

     iteration # 57     ecut=    90.00 Ry     beta= 0.20
     CG style diagonalization
     ethr =  1.78E-11,  avg # of iterations =  3.3

     negative rho (up, down):  0.000E+00 1.466E-04

     total cpu time spent up to now is     3059.2 secs

     total energy              =   -2510.59760786 Ry
     estimated scf accuracy    <       0.00000002 Ry

     total magnetization       =    15.28 Bohr mag/cell
     absolute magnetization    =    15.78 Bohr mag/cell

     iteration # 58     ecut=    90.00 Ry     beta= 0.20
     CG style diagonalization
     c_bands:  1 eigenvalues not converged
     ethr =  1.15E-11,  avg # of iterations =  3.2

     negative rho (up, down):  0.000E+00 1.466E-04

     total cpu time spent up to now is     3114.5 secs

     total energy              =   -2510.59760787 Ry
     estimated scf accuracy    <       0.00000002 Ry

     total magnetization       =    15.28 Bohr mag/cell
     absolute magnetization    =    15.78 Bohr mag/cell

     iteration # 59     ecut=    90.00 Ry     beta= 0.20
     CG style diagonalization
     c_bands:  1 eigenvalues not converged
     ethr =  1.15E-11,  avg # of iterations =  3.1

     negative rho (up, down):  0.000E+00 1.466E-04

     total cpu time spent up to now is     3167.3 secs

     total energy              =   -2510.59760787 Ry
     estimated scf accuracy    <          6.3E-09 Ry

     total magnetization       =    15.28 Bohr mag/cell
     absolute magnetization    =    15.78 Bohr mag/cell

     iteration # 60     ecut=    90.00 Ry     beta= 0.20
     CG style diagonalization
     c_bands:  2 eigenvalues not converged
     ethr =  4.81E-12,  avg # of iterations =  3.4

     negative rho (up, down):  0.000E+00 1.466E-04

     total cpu time spent up to now is     3225.3 secs

     total energy              =   -2510.59760787 Ry
     estimated scf accuracy    <          7.4E-09 Ry

     total magnetization       =    15.28 Bohr mag/cell
     absolute magnetization    =    15.78 Bohr mag/cell

     iteration # 61     ecut=    90.00 Ry     beta= 0.20
     CG style diagonalization
     c_bands:  2 eigenvalues not converged
     ethr =  4.81E-12,  avg # of iterations =  3.1

     negative rho (up, down):  0.000E+00 1.466E-04

     total cpu time spent up to now is     3277.9 secs

     total energy              =   -2510.59760787 Ry
     estimated scf accuracy    <       0.00000002 Ry

     total magnetization       =    15.28 Bohr mag/cell
     absolute magnetization    =    15.78 Bohr mag/cell

     iteration # 62     ecut=    90.00 Ry     beta= 0.20
     CG style diagonalization
     c_bands:  2 eigenvalues not converged
     ethr =  4.81E-12,  avg # of iterations =  3.0

     negative rho (up, down):  0.000E+00 1.466E-04

     total cpu time spent up to now is     3330.0 secs

     total energy              =   -2510.59760787 Ry
     estimated scf accuracy    <          8.6E-09 Ry

     total magnetization       =    15.28 Bohr mag/cell
     absolute magnetization    =    15.78 Bohr mag/cell

     iteration # 63     ecut=    90.00 Ry     beta= 0.20
     CG style diagonalization
     c_bands:  1 eigenvalues not converged
     ethr =  4.81E-12,  avg # of iterations =  3.1

     negative rho (up, down):  0.000E+00 1.466E-04

     total cpu time spent up to now is     3382.6 secs

     total energy              =   -2510.59760787 Ry
     estimated scf accuracy    <          9.3E-09 Ry

     total magnetization       =    15.28 Bohr mag/cell
     absolute magnetization    =    15.78 Bohr mag/cell

     iteration # 64     ecut=    90.00 Ry     beta= 0.20
     CG style diagonalization
     c_bands:  1 eigenvalues not converged
     ethr =  4.81E-12,  avg # of iterations =  3.1

     negative rho (up, down):  0.000E+00 1.466E-04

     total cpu time spent up to now is     3435.0 secs

     total energy              =   -2510.59760787 Ry
     estimated scf accuracy    <       0.00000002 Ry

     total magnetization       =    15.28 Bohr mag/cell
     absolute magnetization    =    15.78 Bohr mag/cell

     iteration # 65     ecut=    90.00 Ry     beta= 0.20
     CG style diagonalization
     c_bands:  1 eigenvalues not converged
     ethr =  4.81E-12,  avg # of iterations =  3.1

     negative rho (up, down):  0.000E+00 1.466E-04

     total cpu time spent up to now is     3487.7 secs

     total energy              =   -2510.59760787 Ry
     estimated scf accuracy    <          5.9E-09 Ry

     total magnetization       =    15.28 Bohr mag/cell
     absolute magnetization    =    15.78 Bohr mag/cell

     iteration # 66     ecut=    90.00 Ry     beta= 0.20
     CG style diagonalization
     c_bands:  1 eigenvalues not converged
     ethr =  4.47E-12,  avg # of iterations =  3.0

     negative rho (up, down):  0.000E+00 1.466E-04

     total cpu time spent up to now is     3539.5 secs

     total energy              =   -2510.59760787 Ry
     estimated scf accuracy    <          3.1E-09 Ry

     total magnetization       =    15.28 Bohr mag/cell
     absolute magnetization    =    15.78 Bohr mag/cell

     iteration # 67     ecut=    90.00 Ry     beta= 0.20
     CG style diagonalization
     c_bands:  1 eigenvalues not converged
     ethr =  2.32E-12,  avg # of iterations =  3.0

     negative rho (up, down):  0.000E+00 1.466E-04

     total cpu time spent up to now is     3590.6 secs

     total energy              =   -2510.59760787 Ry
     estimated scf accuracy    <          2.8E-09 Ry

     total magnetization       =    15.28 Bohr mag/cell
     absolute magnetization    =    15.78 Bohr mag/cell

     iteration # 68     ecut=    90.00 Ry     beta= 0.20
     CG style diagonalization
     c_bands:  1 eigenvalues not converged
     ethr =  2.14E-12,  avg # of iterations =  3.0

     negative rho (up, down):  0.000E+00 1.466E-04

     total cpu time spent up to now is     3642.1 secs

     total energy              =   -2510.59760788 Ry
     estimated scf accuracy    <          4.5E-09 Ry

     total magnetization       =    15.28 Bohr mag/cell
     absolute magnetization    =    15.78 Bohr mag/cell

     iteration # 69     ecut=    90.00 Ry     beta= 0.20
     CG style diagonalization
     c_bands:  1 eigenvalues not converged
     ethr =  2.14E-12,  avg # of iterations =  3.0

     negative rho (up, down):  0.000E+00 1.466E-04

     total cpu time spent up to now is     3693.6 secs

     total energy              =   -2510.59760788 Ry
     estimated scf accuracy    <          1.8E-09 Ry

     total magnetization       =    15.28 Bohr mag/cell
     absolute magnetization    =    15.78 Bohr mag/cell

     iteration # 70     ecut=    90.00 Ry     beta= 0.20
     CG style diagonalization
     c_bands:  1 eigenvalues not converged
     ethr =  1.37E-12,  avg # of iterations =  3.0

     negative rho (up, down):  0.000E+00 1.466E-04

     total cpu time spent up to now is     3744.6 secs

     total energy              =   -2510.59760788 Ry
     estimated scf accuracy    <          1.5E-09 Ry

     total magnetization       =    15.28 Bohr mag/cell
     absolute magnetization    =    15.78 Bohr mag/cell

     iteration # 71     ecut=    90.00 Ry     beta= 0.20
     CG style diagonalization
     c_bands:  2 eigenvalues not converged
     ethr =  1.14E-12,  avg # of iterations =  3.0

     negative rho (up, down):  0.000E+00 1.466E-04

     total cpu time spent up to now is     3796.6 secs

     total energy              =   -2510.59760788 Ry
     estimated scf accuracy    <          2.5E-09 Ry

     total magnetization       =    15.28 Bohr mag/cell
     absolute magnetization    =    15.78 Bohr mag/cell

     iteration # 72     ecut=    90.00 Ry     beta= 0.20
     CG style diagonalization
     c_bands:  2 eigenvalues not converged
     ethr =  1.14E-12,  avg # of iterations =  3.0

     negative rho (up, down):  0.000E+00 1.466E-04

     total cpu time spent up to now is     3847.0 secs

     total energy              =   -2510.59760788 Ry
     estimated scf accuracy    <          2.9E-09 Ry

     total magnetization       =    15.28 Bohr mag/cell
     absolute magnetization    =    15.78 Bohr mag/cell

     iteration # 73     ecut=    90.00 Ry     beta= 0.20
     CG style diagonalization
     c_bands:  1 eigenvalues not converged
     ethr =  1.14E-12,  avg # of iterations =  3.0

     negative rho (up, down):  0.000E+00 1.466E-04

     total cpu time spent up to now is     3897.2 secs

     total energy              =   -2510.59760788 Ry
     estimated scf accuracy    <          3.4E-09 Ry

     total magnetization       =    15.28 Bohr mag/cell
     absolute magnetization    =    15.78 Bohr mag/cell

     iteration # 74     ecut=    90.00 Ry     beta= 0.20
     CG style diagonalization
     ethr =  1.14E-12,  avg # of iterations =  3.0

     negative rho (up, down):  0.000E+00 1.466E-04

     total cpu time spent up to now is     3947.4 secs

     total energy              =   -2510.59760788 Ry
     estimated scf accuracy    <          2.8E-09 Ry

     total magnetization       =    15.28 Bohr mag/cell
     absolute magnetization    =    15.78 Bohr mag/cell

     iteration # 75     ecut=    90.00 Ry     beta= 0.20
     CG style diagonalization
     ethr =  1.14E-12,  avg # of iterations =  3.0

     negative rho (up, down):  0.000E+00 1.466E-04

     total cpu time spent up to now is     3997.6 secs

     total energy              =   -2510.59760788 Ry
     estimated scf accuracy    <          3.0E-09 Ry

     total magnetization       =    15.28 Bohr mag/cell
     absolute magnetization    =    15.78 Bohr mag/cell

     iteration # 76     ecut=    90.00 Ry     beta= 0.20
     CG style diagonalization
     ethr =  1.14E-12,  avg # of iterations =  3.0

     negative rho (up, down):  0.000E+00 1.466E-04

     total cpu time spent up to now is     4047.8 secs

     total energy              =   -2510.59760788 Ry
     estimated scf accuracy    <          6.8E-09 Ry

     total magnetization       =    15.28 Bohr mag/cell
     absolute magnetization    =    15.78 Bohr mag/cell

     iteration # 77     ecut=    90.00 Ry     beta= 0.20
     CG style diagonalization
     ethr =  1.14E-12,  avg # of iterations =  3.1

     negative rho (up, down):  0.000E+00 1.466E-04

     total cpu time spent up to now is     4098.9 secs

     total energy              =   -2510.59760788 Ry
     estimated scf accuracy    <          3.4E-09 Ry

     total magnetization       =    15.28 Bohr mag/cell
     absolute magnetization    =    15.78 Bohr mag/cell

     iteration # 78     ecut=    90.00 Ry     beta= 0.20
     CG style diagonalization
     ethr =  1.14E-12,  avg # of iterations =  3.0

     negative rho (up, down):  0.000E+00 1.466E-04

     total cpu time spent up to now is     4149.2 secs

     total energy              =   -2510.59760788 Ry
     estimated scf accuracy    <          2.5E-09 Ry

     total magnetization       =    15.28 Bohr mag/cell
     absolute magnetization    =    15.78 Bohr mag/cell

     iteration # 79     ecut=    90.00 Ry     beta= 0.20
     CG style diagonalization
     c_bands:  1 eigenvalues not converged
     ethr =  1.14E-12,  avg # of iterations =  3.2

     negative rho (up, down):  0.000E+00 1.466E-04

     total cpu time spent up to now is     4203.4 secs

     total energy              =   -2510.59760788 Ry
     estimated scf accuracy    <          4.3E-09 Ry

     total magnetization       =    15.28 Bohr mag/cell
     absolute magnetization    =    15.78 Bohr mag/cell

     iteration # 80     ecut=    90.00 Ry     beta= 0.20
     CG style diagonalization
     ethr =  1.14E-12,  avg # of iterations =  3.1

     negative rho (up, down):  0.000E+00 1.466E-04

     total cpu time spent up to now is     4256.0 secs

     total energy              =   -2510.59760788 Ry
     estimated scf accuracy    <          2.7E-09 Ry

     total magnetization       =    15.28 Bohr mag/cell
     absolute magnetization    =    15.78 Bohr mag/cell

     iteration # 81     ecut=    90.00 Ry     beta= 0.20
     CG style diagonalization
     ethr =  1.14E-12,  avg # of iterations =  3.0

     negative rho (up, down):  0.000E+00 1.466E-04

     total cpu time spent up to now is     4306.2 secs

     total energy              =   -2510.59760788 Ry
     estimated scf accuracy    <          9.7E-10 Ry

     total magnetization       =    15.28 Bohr mag/cell
     absolute magnetization    =    15.78 Bohr mag/cell

     iteration # 82     ecut=    90.00 Ry     beta= 0.20
     CG style diagonalization
     ethr =  7.39E-13,  avg # of iterations =  3.0

     negative rho (up, down):  0.000E+00 1.466E-04

     total cpu time spent up to now is     4356.4 secs

     total energy              =   -2510.59760788 Ry
     estimated scf accuracy    <          6.6E-10 Ry

     total magnetization       =    15.28 Bohr mag/cell
     absolute magnetization    =    15.78 Bohr mag/cell

     iteration # 83     ecut=    90.00 Ry     beta= 0.20
     CG style diagonalization
     c_bands:  3 eigenvalues not converged
     ethr =  4.99E-13,  avg # of iterations =  3.0

     negative rho (up, down):  0.000E+00 1.466E-04

     total cpu time spent up to now is     4406.7 secs

     total energy              =   -2510.59760788 Ry
     estimated scf accuracy    <          4.0E-10 Ry

     total magnetization       =    15.28 Bohr mag/cell
     absolute magnetization    =    15.78 Bohr mag/cell

     iteration # 84     ecut=    90.00 Ry     beta= 0.20
     CG style diagonalization
     c_bands:  3 eigenvalues not converged
     ethr =  3.07E-13,  avg # of iterations =  3.0

     negative rho (up, down):  0.000E+00 1.466E-04

     total cpu time spent up to now is     4457.0 secs

     total energy              =   -2510.59760788 Ry
     estimated scf accuracy    <          3.2E-10 Ry

     total magnetization       =    15.28 Bohr mag/cell
     absolute magnetization    =    15.78 Bohr mag/cell

     iteration # 85     ecut=    90.00 Ry     beta= 0.20
     CG style diagonalization
     c_bands:  3 eigenvalues not converged
     ethr =  2.39E-13,  avg # of iterations =  3.0

     negative rho (up, down):  0.000E+00 1.466E-04

     total cpu time spent up to now is     4507.4 secs

     total energy              =   -2510.59760788 Ry
     estimated scf accuracy    <          1.7E-10 Ry

     total magnetization       =    15.28 Bohr mag/cell
     absolute magnetization    =    15.78 Bohr mag/cell

     iteration # 86     ecut=    90.00 Ry     beta= 0.20
     CG style diagonalization
     c_bands:  3 eigenvalues not converged
     ethr =  1.31E-13,  avg # of iterations =  3.2

     negative rho (up, down):  0.000E+00 1.466E-04

     total cpu time spent up to now is     4560.7 secs

     total energy              =   -2510.59760788 Ry
     estimated scf accuracy    <          7.1E-10 Ry

     total magnetization       =    15.28 Bohr mag/cell
     absolute magnetization    =    15.78 Bohr mag/cell

     iteration # 87     ecut=    90.00 Ry     beta= 0.20
     CG style diagonalization
     c_bands:  3 eigenvalues not converged
     ethr =  1.31E-13,  avg # of iterations =  3.1

     negative rho (up, down):  0.000E+00 1.466E-04

     total cpu time spent up to now is     4613.4 secs

     total energy              =   -2510.59760788 Ry
     estimated scf accuracy    <          5.4E-10 Ry

     total magnetization       =    15.28 Bohr mag/cell
     absolute magnetization    =    15.78 Bohr mag/cell

     iteration # 88     ecut=    90.00 Ry     beta= 0.20
     CG style diagonalization
     c_bands:  3 eigenvalues not converged
     ethr =  1.31E-13,  avg # of iterations =  3.0

     negative rho (up, down):  0.000E+00 1.466E-04

     total cpu time spent up to now is     4663.8 secs

     total energy              =   -2510.59760788 Ry
     estimated scf accuracy    <          3.5E-10 Ry

     total magnetization       =    15.28 Bohr mag/cell
     absolute magnetization    =    15.78 Bohr mag/cell

     iteration # 89     ecut=    90.00 Ry     beta= 0.20
     CG style diagonalization
     c_bands:  3 eigenvalues not converged
     ethr =  1.31E-13,  avg # of iterations =  3.0

     negative rho (up, down):  0.000E+00 1.466E-04

     total cpu time spent up to now is     4714.0 secs

     total energy              =   -2510.59760788 Ry
     estimated scf accuracy    <          4.4E-10 Ry

     total magnetization       =    15.28 Bohr mag/cell
     absolute magnetization    =    15.78 Bohr mag/cell

     iteration # 90     ecut=    90.00 Ry     beta= 0.20
     CG style diagonalization
     c_bands:  3 eigenvalues not converged
     ethr =  1.31E-13,  avg # of iterations =  3.0

     negative rho (up, down):  0.000E+00 1.466E-04

     total cpu time spent up to now is     4764.3 secs

     total energy              =   -2510.59760788 Ry
     estimated scf accuracy    <          5.1E-10 Ry

     total magnetization       =    15.28 Bohr mag/cell
     absolute magnetization    =    15.78 Bohr mag/cell

     iteration # 91     ecut=    90.00 Ry     beta= 0.20
     CG style diagonalization
     c_bands:  3 eigenvalues not converged
     ethr =  1.31E-13,  avg # of iterations =  3.2

     negative rho (up, down):  0.000E+00 1.466E-04

     total cpu time spent up to now is     4817.7 secs

     total energy              =   -2510.59760788 Ry
     estimated scf accuracy    <          7.3E-10 Ry

     total magnetization       =    15.28 Bohr mag/cell
     absolute magnetization    =    15.78 Bohr mag/cell

     iteration # 92     ecut=    90.00 Ry     beta= 0.20
     CG style diagonalization
     c_bands:  3 eigenvalues not converged
     ethr =  1.31E-13,  avg # of iterations =  3.0

     negative rho (up, down):  0.000E+00 1.466E-04

     total cpu time spent up to now is     4868.5 secs

     total energy              =   -2510.59760788 Ry
     estimated scf accuracy    <          2.1E-09 Ry

     total magnetization       =    15.28 Bohr mag/cell
     absolute magnetization    =    15.78 Bohr mag/cell

     iteration # 93     ecut=    90.00 Ry     beta= 0.20
     CG style diagonalization
     c_bands:  3 eigenvalues not converged
     ethr =  1.31E-13,  avg # of iterations =  3.0

     negative rho (up, down):  0.000E+00 1.466E-04

     total cpu time spent up to now is     4918.8 secs

     total energy              =   -2510.59760788 Ry
     estimated scf accuracy    <          2.6E-09 Ry

     total magnetization       =    15.28 Bohr mag/cell
     absolute magnetization    =    15.78 Bohr mag/cell

     iteration # 94     ecut=    90.00 Ry     beta= 0.20
     CG style diagonalization
     ethr =  1.31E-13,  avg # of iterations =  3.4

     negative rho (up, down):  0.000E+00 1.466E-04

     total cpu time spent up to now is     4974.7 secs

     total energy              =   -2510.59760788 Ry
     estimated scf accuracy    <          4.1E-09 Ry

     total magnetization       =    15.28 Bohr mag/cell
     absolute magnetization    =    15.78 Bohr mag/cell

     iteration # 95     ecut=    90.00 Ry     beta= 0.20
     CG style diagonalization
     c_bands:  1 eigenvalues not converged
     ethr =  1.31E-13,  avg # of iterations =  3.1

     negative rho (up, down):  0.000E+00 1.466E-04

     total cpu time spent up to now is     5026.1 secs

     total energy              =   -2510.59760788 Ry
     estimated scf accuracy    <          4.9E-09 Ry

     total magnetization       =    15.28 Bohr mag/cell
     absolute magnetization    =    15.78 Bohr mag/cell

     iteration # 96     ecut=    90.00 Ry     beta= 0.20
     CG style diagonalization
     c_bands:  3 eigenvalues not converged
     ethr =  1.31E-13,  avg # of iterations =  3.6

     negative rho (up, down):  0.000E+00 1.465E-04

     total cpu time spent up to now is     5086.4 secs

     total energy              =   -2510.59760788 Ry
     estimated scf accuracy    <          4.3E-09 Ry

     total magnetization       =    15.28 Bohr mag/cell
     absolute magnetization    =    15.78 Bohr mag/cell

     iteration # 97     ecut=    90.00 Ry     beta= 0.20
     CG style diagonalization
     c_bands:  3 eigenvalues not converged
     ethr =  1.31E-13,  avg # of iterations =  3.7

     negative rho (up, down):  0.000E+00 1.465E-04

     total cpu time spent up to now is     5148.4 secs

     total energy              =   -2510.59760788 Ry
     estimated scf accuracy    <          3.7E-09 Ry

     total magnetization       =    15.28 Bohr mag/cell
     absolute magnetization    =    15.78 Bohr mag/cell

     iteration # 98     ecut=    90.00 Ry     beta= 0.20
     CG style diagonalization
     c_bands:  3 eigenvalues not converged
     ethr =  1.31E-13,  avg # of iterations =  4.1

     negative rho (up, down):  0.000E+00 1.465E-04

     total cpu time spent up to now is     5216.0 secs

     total energy              =   -2510.59760788 Ry
     estimated scf accuracy    <          7.5E-09 Ry

     total magnetization       =    15.28 Bohr mag/cell
     absolute magnetization    =    15.78 Bohr mag/cell

     iteration # 99     ecut=    90.00 Ry     beta= 0.20
     CG style diagonalization
     c_bands:  3 eigenvalues not converged
     ethr =  1.31E-13,  avg # of iterations =  4.0

     negative rho (up, down):  0.000E+00 1.465E-04

     total cpu time spent up to now is     5282.5 secs

     total energy              =   -2510.59760788 Ry
     estimated scf accuracy    <       0.00000001 Ry

     total magnetization       =    15.28 Bohr mag/cell
     absolute magnetization    =    15.78 Bohr mag/cell

     iteration #100     ecut=    90.00 Ry     beta= 0.20
     CG style diagonalization
     c_bands:  2 eigenvalues not converged
     ethr =  1.31E-13,  avg # of iterations =  3.6

     negative rho (up, down):  0.000E+00 1.465E-04

     total cpu time spent up to now is     5343.1 secs

     total energy              =   -2510.59760788 Ry
     estimated scf accuracy    <          1.8E-09 Ry

     total magnetization       =    15.28 Bohr mag/cell
     absolute magnetization    =    15.78 Bohr mag/cell

     iteration #101     ecut=    90.00 Ry     beta= 0.20
     CG style diagonalization
     ethr =  1.31E-13,  avg # of iterations =  3.5

     negative rho (up, down):  0.000E+00 1.465E-04

     total cpu time spent up to now is     5401.7 secs

     total energy              =   -2510.59760788 Ry
     estimated scf accuracy    <          2.2E-09 Ry

     total magnetization       =    15.28 Bohr mag/cell
     absolute magnetization    =    15.78 Bohr mag/cell

     iteration #102     ecut=    90.00 Ry     beta= 0.20
     CG style diagonalization
     c_bands:  1 eigenvalues not converged
     ethr =  1.31E-13,  avg # of iterations =  3.1

     negative rho (up, down):  0.000E+00 1.465E-04

     total cpu time spent up to now is     5453.2 secs

     total energy              =   -2510.59760788 Ry
     estimated scf accuracy    <          1.7E-09 Ry

     total magnetization       =    15.28 Bohr mag/cell
     absolute magnetization    =    15.78 Bohr mag/cell

     iteration #103     ecut=    90.00 Ry     beta= 0.20
     CG style diagonalization
     c_bands:  1 eigenvalues not converged
     ethr =  1.31E-13,  avg # of iterations =  3.4

     negative rho (up, down):  0.000E+00 1.465E-04

     total cpu time spent up to now is     5510.8 secs

     total energy              =   -2510.59760788 Ry
     estimated scf accuracy    <          4.1E-09 Ry

     total magnetization       =    15.28 Bohr mag/cell
     absolute magnetization    =    15.78 Bohr mag/cell

     iteration #104     ecut=    90.00 Ry     beta= 0.20
     CG style diagonalization
     c_bands:  1 eigenvalues not converged
     ethr =  1.31E-13,  avg # of iterations =  3.5

     negative rho (up, down):  0.000E+00 1.465E-04

     total cpu time spent up to now is     5568.6 secs

     total energy              =   -2510.59760788 Ry
     estimated scf accuracy    <          3.3E-09 Ry

     total magnetization       =    15.28 Bohr mag/cell
     absolute magnetization    =    15.78 Bohr mag/cell

     iteration #105     ecut=    90.00 Ry     beta= 0.20
     CG style diagonalization
     c_bands:  1 eigenvalues not converged
     ethr =  1.31E-13,  avg # of iterations =  3.0

     negative rho (up, down):  0.000E+00 1.466E-04

     total cpu time spent up to now is     5618.9 secs

     total energy              =   -2510.59760788 Ry
     estimated scf accuracy    <          3.3E-09 Ry

     total magnetization       =    15.28 Bohr mag/cell
     absolute magnetization    =    15.78 Bohr mag/cell

     iteration #106     ecut=    90.00 Ry     beta= 0.20
     CG style diagonalization
     c_bands:  1 eigenvalues not converged
     ethr =  1.31E-13,  avg # of iterations =  3.2

     negative rho (up, down):  0.000E+00 1.466E-04

     total cpu time spent up to now is     5672.1 secs

     total energy              =   -2510.59760788 Ry
     estimated scf accuracy    <          3.0E-09 Ry

     total magnetization       =    15.28 Bohr mag/cell
     absolute magnetization    =    15.78 Bohr mag/cell

     iteration #107     ecut=    90.00 Ry     beta= 0.20
     CG style diagonalization
     c_bands:  3 eigenvalues not converged
     ethr =  1.31E-13,  avg # of iterations =  3.2

     negative rho (up, down):  0.000E+00 1.466E-04

     total cpu time spent up to now is     5725.4 secs

     total energy              =   -2510.59760788 Ry
     estimated scf accuracy    <          1.6E-09 Ry

     total magnetization       =    15.28 Bohr mag/cell
     absolute magnetization    =    15.78 Bohr mag/cell

     iteration #108     ecut=    90.00 Ry     beta= 0.20
     CG style diagonalization
     c_bands:  3 eigenvalues not converged
     ethr =  1.31E-13,  avg # of iterations =  3.4

     negative rho (up, down):  0.000E+00 1.466E-04

     total cpu time spent up to now is     5782.4 secs

     total energy              =   -2510.59760788 Ry
     estimated scf accuracy    <          2.6E-09 Ry

     total magnetization       =    15.28 Bohr mag/cell
     absolute magnetization    =    15.78 Bohr mag/cell

     iteration #109     ecut=    90.00 Ry     beta= 0.20
     CG style diagonalization
     c_bands:  2 eigenvalues not converged
     ethr =  1.31E-13,  avg # of iterations =  3.6

     negative rho (up, down):  0.000E+00 1.466E-04

     total cpu time spent up to now is     5842.9 secs

     total energy              =   -2510.59760788 Ry
     estimated scf accuracy    <          4.0E-09 Ry

     total magnetization       =    15.28 Bohr mag/cell
     absolute magnetization    =    15.78 Bohr mag/cell

     iteration #110     ecut=    90.00 Ry     beta= 0.20
     CG style diagonalization
     c_bands:  1 eigenvalues not converged
     ethr =  1.31E-13,  avg # of iterations =  3.5

     negative rho (up, down):  0.000E+00 1.466E-04

     total cpu time spent up to now is     5901.3 secs

     total energy              =   -2510.59760788 Ry
     estimated scf accuracy    <          1.9E-09 Ry

     total magnetization       =    15.28 Bohr mag/cell
     absolute magnetization    =    15.78 Bohr mag/cell

     iteration #111     ecut=    90.00 Ry     beta= 0.20
     CG style diagonalization
     c_bands:  1 eigenvalues not converged
     ethr =  1.31E-13,  avg # of iterations =  3.4

     negative rho (up, down):  0.000E+00 1.466E-04

     total cpu time spent up to now is     5958.9 secs

     total energy              =   -2510.59760788 Ry
     estimated scf accuracy    <          2.1E-09 Ry

     total magnetization       =    15.28 Bohr mag/cell
     absolute magnetization    =    15.78 Bohr mag/cell

     iteration #112     ecut=    90.00 Ry     beta= 0.20
     CG style diagonalization
     c_bands:  1 eigenvalues not converged
     ethr =  1.31E-13,  avg # of iterations =  3.2

     negative rho (up, down):  0.000E+00 1.466E-04

     total cpu time spent up to now is     6012.4 secs

     total energy              =   -2510.59760788 Ry
     estimated scf accuracy    <          3.6E-10 Ry

     total magnetization       =    15.28 Bohr mag/cell
     absolute magnetization    =    15.78 Bohr mag/cell

     iteration #113     ecut=    90.00 Ry     beta= 0.20
     CG style diagonalization
     ethr =  1.31E-13,  avg # of iterations =  3.0

     negative rho (up, down):  0.000E+00 1.466E-04

     total cpu time spent up to now is     6062.9 secs

     total energy              =   -2510.59760788 Ry
     estimated scf accuracy    <          3.8E-10 Ry

     total magnetization       =    15.28 Bohr mag/cell
     absolute magnetization    =    15.78 Bohr mag/cell

     iteration #114     ecut=    90.00 Ry     beta= 0.20
     CG style diagonalization
     c_bands:  1 eigenvalues not converged
     ethr =  1.31E-13,  avg # of iterations =  3.0

     negative rho (up, down):  0.000E+00 1.466E-04

     total cpu time spent up to now is     6113.2 secs

     total energy              =   -2510.59760788 Ry
     estimated scf accuracy    <          1.7E-10 Ry

     total magnetization       =    15.28 Bohr mag/cell
     absolute magnetization    =    15.78 Bohr mag/cell

     iteration #115     ecut=    90.00 Ry     beta= 0.20
     CG style diagonalization
     ethr =  1.29E-13,  avg # of iterations =  3.0

     negative rho (up, down):  0.000E+00 1.466E-04

     total cpu time spent up to now is     6163.4 secs

     total energy              =   -2510.59760788 Ry
     estimated scf accuracy    <          1.5E-10 Ry

     total magnetization       =    15.28 Bohr mag/cell
     absolute magnetization    =    15.78 Bohr mag/cell

     iteration #116     ecut=    90.00 Ry     beta= 0.20
     CG style diagonalization
     c_bands:  1 eigenvalues not converged
     ethr =  1.11E-13,  avg # of iterations =  3.0

     negative rho (up, down):  0.000E+00 1.466E-04

     total cpu time spent up to now is     6213.6 secs

     total energy              =   -2510.59760788 Ry
     estimated scf accuracy    <          2.7E-10 Ry

     total magnetization       =    15.28 Bohr mag/cell
     absolute magnetization    =    15.78 Bohr mag/cell

     iteration #117     ecut=    90.00 Ry     beta= 0.20
     CG style diagonalization
     c_bands:  2 eigenvalues not converged
     ethr =  1.11E-13,  avg # of iterations =  3.0

     negative rho (up, down):  0.000E+00 1.466E-04

     total cpu time spent up to now is     6263.9 secs

     total energy              =   -2510.59760788 Ry
     estimated scf accuracy    <          1.1E-10 Ry

     total magnetization       =    15.28 Bohr mag/cell
     absolute magnetization    =    15.78 Bohr mag/cell

     iteration #118     ecut=    90.00 Ry     beta= 0.20
     CG style diagonalization
     c_bands:  2 eigenvalues not converged
     ethr =  1.00E-13,  avg # of iterations =  3.0

     negative rho (up, down):  0.000E+00 1.466E-04

     total cpu time spent up to now is     6314.2 secs

     total energy              =   -2510.59760788 Ry
     estimated scf accuracy    <          2.6E-10 Ry

     total magnetization       =    15.28 Bohr mag/cell
     absolute magnetization    =    15.78 Bohr mag/cell

     iteration #119     ecut=    90.00 Ry     beta= 0.20
     CG style diagonalization
     c_bands:  2 eigenvalues not converged
     ethr =  1.00E-13,  avg # of iterations =  3.0

     negative rho (up, down):  0.000E+00 1.466E-04

     Magnetic moment per site:
     atom:    1    charge:   14.0226    magn:    2.3767    constr:    0.0000
     atom:    2    charge:   15.2148    magn:    1.4090    constr:    0.0000
     atom:    3    charge:   14.0226    magn:    2.3767    constr:    0.0000
     atom:    4    charge:   15.2148    magn:    1.4090    constr:    0.0000
     atom:    5    charge:   14.0226    magn:    2.3767    constr:    0.0000
     atom:    6    charge:   15.2148    magn:    1.4090    constr:    0.0000
     atom:    7    charge:   14.0226    magn:    2.3767    constr:    0.0000
     atom:    8    charge:   15.2148    magn:    1.4090    constr:    0.0000

     total cpu time spent up to now is     6364.4 secs

     End of self-consistent calculation

     Number of k-points >= 100: set verbosity='high' to print the bands.

     the Fermi energy is    17.3014 ev

!    total energy              =   -2510.59760788 Ry
     estimated scf accuracy    <          2.9E-11 Ry
     smearing contrib. (-TS)   =      -0.00515447 Ry
     internal energy E=F+TS    =   -2510.59245341 Ry

     total magnetization       =    15.28 Bohr mag/cell
     absolute magnetization    =    15.78 Bohr mag/cell

     convergence has been achieved in 119 iterations

     negative rho (up, down):  0.000E+00 1.466E-04

     Forces acting on atoms (cartesian axes, Ry/au):

     atom    1 type  1   force =     0.00000005   -0.00000000    0.00000001
     atom    2 type  2   force =    -0.00000004   -0.00000000   -0.00000000
     atom    3 type  1   force =     0.00000003   -0.00000000   -0.00000001
     atom    4 type  2   force =    -0.00000004    0.00000001    0.00000000
     atom    5 type  1   force =     0.00000003   -0.00000002   -0.00000001
     atom    6 type  2   force =    -0.00000004    0.00000000    0.00000000
     atom    7 type  1   force =     0.00000003    0.00000001    0.00000001
     atom    8 type  2   force =    -0.00000003    0.00000000   -0.00000000

     Total force =     0.000000     Total SCF correction =     0.000000
     SCF correction compared to forces is large: reduce conv_thr to get better values


     Computing stress (Cartesian axis) and pressure


     negative rho (up, down):  0.000E+00 1.466E-04
          total   stress  (Ry/bohr**3)                   (kbar)     P=      155.93
   0.00106002  -0.00000088   0.00000090          155.93       -0.13        0.13
  -0.00000088   0.00106002   0.00000083           -0.13      155.93        0.12
   0.00000090   0.00000083   0.00106002            0.13        0.12      155.93


     Entering Dynamics;  it =     1   time =  0.00000 pico-seconds


     File pwscf.e deleted, as requested

     File pwscf.eal deleted, as requested

     File pwscf.ave deleted, as requested

     File pwscf.p deleted, as requested

     File pwscf.avec deleted, as requested

     File pwscf.tv deleted, as requested
  new lattice vectors (alat unit) :
   1.000078281  -0.000000788   0.000000009
  -0.000000788   1.000077129   0.000000720
   0.000000009   0.000000720   1.000078580
  new unit-cell volume =    637.2438 (a.u.)^3
  new positions in cryst coord
Fe      -0.000985309   0.500175021  -0.000442451
Co       0.500043357  -0.000045234   0.499797183
Fe       0.000214022  -0.000002300   0.500806947
Co       0.500143285   0.499719880  -0.000473113
Fe       0.500768648  -0.000530936  -0.000561918
Co      -0.000209923   0.500252145   0.500672390
Fe       0.500002639   0.500358214   0.500197422
Co       0.000023280   0.000073208   0.000003539
  new positions in cart coord (alat unit)
Fe      -0.000985780   0.500213600  -0.000442126
Co       0.500082505  -0.000045271   0.499836462
Fe       0.000214043  -0.000001940   0.500846301
Co       0.500182043   0.499758028  -0.000472786
Fe       0.500807849  -0.000531372  -0.000561958
Co      -0.000210329   0.500291090   0.500712093
Fe       0.500041390   0.500396772   0.500237092
Co       0.000023282   0.000073214   0.000003539

     Ekin =     0.01995091 Ry    T =    0.0 K  Etot =    -2510.57765264
     new unit-cell volume =    637.24381 a.u.^3 (    94.42979 Ang^3 )
     density =      8.07344 g/cm^3

CELL_PARAMETERS (angstrom)
   4.553756443  -0.000003588   0.000000041
  -0.000003588   4.553751197   0.000003277
   0.000000041   0.000003277   4.553757805

ATOMIC_POSITIONS (angstrom)
Fe           -0.0044886523        2.2776726044       -0.0020131759
Co            2.2770756805       -0.0002061389        2.2759553438
Fe            0.0009746248       -0.0000088314        2.2805535450
Co            2.2775289139        2.2755982046       -0.0021527816
Fe            2.2803784593       -0.0024195481       -0.0025588196
Co           -0.0009577106        2.2780254480        2.2799424453
Fe            2.2768884647        2.2785066617        2.2777795735
Co            0.0001060120        0.0003333731        0.0000161156



     Writing output data file ./pwscf.save/
     NEW-OLD atomic charge density approx. for the potential

     Check: negative core charge=   -0.000013

     negative rho (up, down):  0.000E+00 1.428E-04
     extrapolated charge  132.02995, renormalised to  132.00000
     Generating pointlists ...

     total cpu time spent up to now is     6395.2 secs

     Self-consistent Calculation

     iteration #  1     ecut=    90.00 Ry     beta= 0.20
     CG style diagonalization
     c_bands:  2 eigenvalues not converged
     c_bands:  5 eigenvalues not converged
     c_bands:  5 eigenvalues not converged
     c_bands:  2 eigenvalues not converged
     c_bands:  4 eigenvalues not converged
     c_bands:  3 eigenvalues not converged
     c_bands:  2 eigenvalues not converged
     c_bands:  1 eigenvalues not converged
     c_bands:  3 eigenvalues not converged
     c_bands:  2 eigenvalues not converged
     c_bands:  1 eigenvalues not converged
     c_bands:  2 eigenvalues not converged
     c_bands:  3 eigenvalues not converged
     c_bands:  4 eigenvalues not converged
     c_bands:  2 eigenvalues not converged
     c_bands:  2 eigenvalues not converged
     c_bands:  1 eigenvalues not converged
     c_bands:  1 eigenvalues not converged
     c_bands:  1 eigenvalues not converged
     c_bands:  4 eigenvalues not converged
     c_bands:  3 eigenvalues not converged
     c_bands:  1 eigenvalues not converged
     c_bands:  1 eigenvalues not converged
     c_bands:  1 eigenvalues not converged
     c_bands:  4 eigenvalues not converged
     c_bands:  1 eigenvalues not converged
     c_bands:  3 eigenvalues not converged
     c_bands:  1 eigenvalues not converged
     c_bands:  4 eigenvalues not converged
     c_bands:  1 eigenvalues not converged
     c_bands:  4 eigenvalues not converged
     c_bands:  1 eigenvalues not converged
     c_bands:  1 eigenvalues not converged
     c_bands:  1 eigenvalues not converged
     c_bands:  4 eigenvalues not converged
     c_bands:  1 eigenvalues not converged
     c_bands:  5 eigenvalues not converged
     c_bands:  1 eigenvalues not converged
     c_bands:  1 eigenvalues not converged
     c_bands:  3 eigenvalues not converged
     c_bands:  1 eigenvalues not converged
     c_bands:  3 eigenvalues not converged
     c_bands:  4 eigenvalues not converged
     c_bands:  1 eigenvalues not converged
     c_bands:  1 eigenvalues not converged
     c_bands:  1 eigenvalues not converged
     c_bands:  4 eigenvalues not converged
     c_bands:  1 eigenvalues not converged
     c_bands:  4 eigenvalues not converged
     c_bands:  1 eigenvalues not converged
     c_bands:  1 eigenvalues not converged
     c_bands:  1 eigenvalues not converged
     c_bands:  2 eigenvalues not converged
     c_bands:  2 eigenvalues not converged
     c_bands:  1 eigenvalues not converged
     ethr =  1.00E-06,  avg # of iterations =  6.7

     negative rho (up, down):  0.000E+00 1.430E-04

     total cpu time spent up to now is     6505.9 secs

     total energy              =   -2510.59726664 Ry
     estimated scf accuracy    <       0.00076584 Ry

     total magnetization       =    15.30 Bohr mag/cell
     absolute magnetization    =    15.79 Bohr mag/cell

     iteration #  2     ecut=    90.00 Ry     beta= 0.20
     CG style diagonalization
     c_bands:  1 eigenvalues not converged
     ethr =  5.80E-07,  avg # of iterations =  3.9

     negative rho (up, down):  0.000E+00 1.433E-04

     total cpu time spent up to now is     6569.4 secs

     total energy              =   -2510.59754265 Ry
     estimated scf accuracy    <       0.00307564 Ry

     total magnetization       =    15.26 Bohr mag/cell
     absolute magnetization    =    15.76 Bohr mag/cell

     iteration #  3     ecut=    90.00 Ry     beta= 0.20
     CG style diagonalization
     ethr =  5.80E-07,  avg # of iterations =  3.1

     negative rho (up, down):  0.000E+00 1.433E-04

     total cpu time spent up to now is     6620.9 secs

     total energy              =   -2510.59769608 Ry
     estimated scf accuracy    <       0.00022130 Ry

     total magnetization       =    15.28 Bohr mag/cell
     absolute magnetization    =    15.78 Bohr mag/cell

     iteration #  4     ecut=    90.00 Ry     beta= 0.20
     CG style diagonalization
     ethr =  1.68E-07,  avg # of iterations =  3.1

     negative rho (up, down):  0.000E+00 1.437E-04

     total cpu time spent up to now is     6671.6 secs

     total energy              =   -2510.59768495 Ry
     estimated scf accuracy    <       0.00015158 Ry

     total magnetization       =    15.28 Bohr mag/cell
     absolute magnetization    =    15.78 Bohr mag/cell

     iteration #  5     ecut=    90.00 Ry     beta= 0.20
     CG style diagonalization
     ethr =  1.15E-07,  avg # of iterations =  3.5

     negative rho (up, down):  0.000E+00 1.438E-04

     total cpu time spent up to now is     6729.8 secs

     total energy              =   -2510.59772623 Ry
     estimated scf accuracy    <       0.00018108 Ry

     total magnetization       =    15.29 Bohr mag/cell
     absolute magnetization    =    15.79 Bohr mag/cell

     iteration #  6     ecut=    90.00 Ry     beta= 0.20
     CG style diagonalization
     ethr =  1.15E-07,  avg # of iterations =  3.0

     negative rho (up, down):  0.000E+00 1.439E-04

     total cpu time spent up to now is     6779.3 secs

     total energy              =   -2510.59771229 Ry
     estimated scf accuracy    <       0.00009598 Ry

     total magnetization       =    15.29 Bohr mag/cell
     absolute magnetization    =    15.79 Bohr mag/cell

     iteration #  7     ecut=    90.00 Ry     beta= 0.20
     CG style diagonalization
     ethr =  7.27E-08,  avg # of iterations =  3.3

     negative rho (up, down):  0.000E+00 1.439E-04

     total cpu time spent up to now is     6832.9 secs

     total energy              =   -2510.59772457 Ry
     estimated scf accuracy    <       0.00002071 Ry

     total magnetization       =    15.28 Bohr mag/cell
     absolute magnetization    =    15.78 Bohr mag/cell

     iteration #  8     ecut=    90.00 Ry     beta= 0.20
     CG style diagonalization
     ethr =  1.57E-08,  avg # of iterations =  3.6

     negative rho (up, down):  0.000E+00 1.440E-04

     total cpu time spent up to now is     6891.5 secs

     total energy              =   -2510.59772842 Ry
     estimated scf accuracy    <       0.00001756 Ry

     total magnetization       =    15.28 Bohr mag/cell
     absolute magnetization    =    15.78 Bohr mag/cell

     iteration #  9     ecut=    90.00 Ry     beta= 0.20
     CG style diagonalization
     ethr =  1.33E-08,  avg # of iterations =  3.1

     negative rho (up, down):  0.000E+00 1.440E-04

     total cpu time spent up to now is     6943.2 secs

     total energy              =   -2510.59773044 Ry
     estimated scf accuracy    <       0.00000432 Ry

     total magnetization       =    15.28 Bohr mag/cell
     absolute magnetization    =    15.78 Bohr mag/cell

     iteration # 10     ecut=    90.00 Ry     beta= 0.20
     CG style diagonalization
     c_bands:  1 eigenvalues not converged
     ethr =  3.27E-09,  avg # of iterations =  3.8

     negative rho (up, down):  0.000E+00 1.440E-04

     total cpu time spent up to now is     7004.8 secs

     total energy              =   -2510.59773207 Ry
     estimated scf accuracy    <       0.00000100 Ry

     total magnetization       =    15.28 Bohr mag/cell
     absolute magnetization    =    15.78 Bohr mag/cell

     iteration # 11     ecut=    90.00 Ry     beta= 0.20
     CG style diagonalization
     ethr =  7.57E-10,  avg # of iterations =  4.8

     negative rho (up, down):  0.000E+00 1.440E-04

     total cpu time spent up to now is     7083.1 secs

     total energy              =   -2510.59773309 Ry
     estimated scf accuracy    <       0.00000048 Ry

     total magnetization       =    15.28 Bohr mag/cell
     absolute magnetization    =    15.78 Bohr mag/cell

     iteration # 12     ecut=    90.00 Ry     beta= 0.20
     CG style diagonalization
     ethr =  3.63E-10,  avg # of iterations =  3.5

     negative rho (up, down):  0.000E+00 1.439E-04

     total cpu time spent up to now is     7140.2 secs

     total energy              =   -2510.59773318 Ry
     estimated scf accuracy    <       0.00000046 Ry

     total magnetization       =    15.28 Bohr mag/cell
     absolute magnetization    =    15.78 Bohr mag/cell

     iteration # 13     ecut=    90.00 Ry     beta= 0.20
     CG style diagonalization
     c_bands:  1 eigenvalues not converged
     ethr =  3.45E-10,  avg # of iterations =  3.1

     negative rho (up, down):  0.000E+00 1.439E-04

     total cpu time spent up to now is     7191.1 secs

     total energy              =   -2510.59773319 Ry
     estimated scf accuracy    <       0.00000050 Ry

     total magnetization       =    15.28 Bohr mag/cell
     absolute magnetization    =    15.78 Bohr mag/cell

     iteration # 14     ecut=    90.00 Ry     beta= 0.20
     CG style diagonalization
     ethr =  3.45E-10,  avg # of iterations =  3.0

     negative rho (up, down):  0.000E+00 1.439E-04

     total cpu time spent up to now is     7240.9 secs

     total energy              =   -2510.59773321 Ry
     estimated scf accuracy    <       0.00000057 Ry

     total magnetization       =    15.28 Bohr mag/cell
     absolute magnetization    =    15.78 Bohr mag/cell

     iteration # 15     ecut=    90.00 Ry     beta= 0.20
     CG style diagonalization
     ethr =  3.45E-10,  avg # of iterations =  3.0

     negative rho (up, down):  0.000E+00 1.439E-04

     total cpu time spent up to now is     7290.3 secs

     total energy              =   -2510.59773325 Ry
     estimated scf accuracy    <       0.00000005 Ry

[...]
     iteration # 24     ecut=    90.00 Ry     beta= 0.20
     CG style diagonalization
     ethr =  8.10E-11,  avg # of iterations =  3.0

     negative rho (up, down):  0.000E+00 1.572E-04

     total cpu time spent up to now is   343026.5 secs

     total energy              =   -2510.74487697 Ry
     estimated scf accuracy    <       0.00000007 Ry

     total magnetization       =    18.02 Bohr mag/cell
     absolute magnetization    =    18.79 Bohr mag/cell

     iteration # 25     ecut=    90.00 Ry     beta= 0.20
     CG style diagonalization
     ethr =  5.35E-11,  avg # of iterations =  3.0

     negative rho (up, down):  0.000E+00 1.571E-04

     total cpu time spent up to now is   343078.3 secs

     total energy              =   -2510.74487697 Ry
     estimated scf accuracy    <       0.00000013 Ry

     total magnetization       =    18.02 Bohr mag/cell
     absolute magnetization    =    18.79 Bohr mag/cell

     iteration # 26     ecut=    90.00 Ry     beta= 0.20
     CG style diagonalization
     ethr =  5.35E-11,  avg # of iterations =  3.1

     negative rho (up, down):  0.000E+00 1.572E-04

     total cpu time spent up to now is   343130.6 secs

     total energy              =   -2510.74487697 Ry
     estimated scf accuracy    <       0.00000020 Ry

     total magnetization       =    18.02 Bohr mag/cell
     absolute magnetization    =    18.79 Bohr mag/cell

     iteration # 27     ecut=    90.00 Ry     beta= 0.20
     CG style diagonalization
     ethr =  5.35E-11,  avg # of iterations =  3.0

     negative rho (up, down):  0.000E+00 1.571E-04

     total cpu time spent up to now is   343182.5 secs

     total energy              =   -2510.74487698 Ry
     estimated scf accuracy    <       0.00000009 Ry

     total magnetization       =    18.02 Bohr mag/cell
     absolute magnetization    =    18.79 Bohr mag/cell

     iteration # 28     ecut=    90.00 Ry     beta= 0.20
     CG style diagonalization
     ethr =  5.35E-11,  avg # of iterations =  3.0

     negative rho (up, down):  0.000E+00 1.571E-04

     total cpu time spent up to now is   343236.7 secs

     total energy              =   -2510.74487699 Ry
     estimated scf accuracy    <       0.00000003 Ry

     total magnetization       =    18.02 Bohr mag/cell
     absolute magnetization    =    18.79 Bohr mag/cell

     iteration # 29     ecut=    90.00 Ry     beta= 0.20
     CG style diagonalization
     ethr =  2.40E-11,  avg # of iterations =  3.0

     negative rho (up, down):  0.000E+00 1.571E-04

     total cpu time spent up to now is   343288.1 secs

     total energy              =   -2510.74487699 Ry
     estimated scf accuracy    <       0.00000002 Ry

     total magnetization       =    18.02 Bohr mag/cell
     absolute magnetization    =    18.79 Bohr mag/cell

     iteration # 30     ecut=    90.00 Ry     beta= 0.20
     CG style diagonalization
     ethr =  1.29E-11,  avg # of iterations =  3.1

     negative rho (up, down):  0.000E+00 1.571E-04

     total cpu time spent up to now is   343340.4 secs

     total energy              =   -2510.74487699 Ry
     estimated scf accuracy    <          8.1E-09 Ry

     total magnetization       =    18.02 Bohr mag/cell
     absolute magnetization    =    18.79 Bohr mag/cell

     iteration # 31     ecut=    90.00 Ry     beta= 0.20
     CG style diagonalization
     ethr =  6.17E-12,  avg # of iterations =  3.4

     negative rho (up, down):  0.000E+00 1.571E-04

     total cpu time spent up to now is   343398.0 secs

     total energy              =   -2510.74487699 Ry
     estimated scf accuracy    <          5.6E-09 Ry

     total magnetization       =    18.02 Bohr mag/cell
     absolute magnetization    =    18.79 Bohr mag/cell

     iteration # 32     ecut=    90.00 Ry     beta= 0.20
     CG style diagonalization
     c_bands:  1 eigenvalues not converged
     ethr =  4.22E-12,  avg # of iterations =  3.3

     negative rho (up, down):  0.000E+00 1.571E-04

     total cpu time spent up to now is   343454.1 secs

     total energy              =   -2510.74487699 Ry
     estimated scf accuracy    <       0.00000001 Ry

     total magnetization       =    18.02 Bohr mag/cell
     absolute magnetization    =    18.79 Bohr mag/cell

     iteration # 33     ecut=    90.00 Ry     beta= 0.20
     CG style diagonalization
     ethr =  4.22E-12,  avg # of iterations =  3.1

     negative rho (up, down):  0.000E+00 1.571E-04

     total cpu time spent up to now is   343507.1 secs

     total energy              =   -2510.74487699 Ry
     estimated scf accuracy    <       0.00000002 Ry

     total magnetization       =    18.02 Bohr mag/cell
     absolute magnetization    =    18.79 Bohr mag/cell

     iteration # 34     ecut=    90.00 Ry     beta= 0.20
     CG style diagonalization
     ethr =  4.22E-12,  avg # of iterations =  3.2

     negative rho (up, down):  0.000E+00 1.571E-04

     total cpu time spent up to now is   343561.8 secs

     total energy              =   -2510.74487699 Ry
     estimated scf accuracy    <       0.00000001 Ry

     total magnetization       =    18.02 Bohr mag/cell
     absolute magnetization    =    18.79 Bohr mag/cell

     iteration # 35     ecut=    90.00 Ry     beta= 0.20
     CG style diagonalization
     ethr =  4.22E-12,  avg # of iterations =  3.1

     negative rho (up, down):  0.000E+00 1.571E-04

     total cpu time spent up to now is   343615.1 secs

     total energy              =   -2510.74487699 Ry
     estimated scf accuracy    <       0.00000002 Ry

     total magnetization       =    18.02 Bohr mag/cell
     absolute magnetization    =    18.79 Bohr mag/cell

     iteration # 36     ecut=    90.00 Ry     beta= 0.20
     CG style diagonalization
     ethr =  4.22E-12,  avg # of iterations =  3.0

     negative rho (up, down):  0.000E+00 1.571E-04

     total cpu time spent up to now is   343666.2 secs

     total energy              =   -2510.74487700 Ry
     estimated scf accuracy    <          3.8E-09 Ry

     total magnetization       =    18.02 Bohr mag/cell
     absolute magnetization    =    18.79 Bohr mag/cell

     iteration # 37     ecut=    90.00 Ry     beta= 0.20
     CG style diagonalization
     ethr =  2.86E-12,  avg # of iterations =  3.0

     negative rho (up, down):  0.000E+00 1.571E-04

     total cpu time spent up to now is   343717.7 secs

     total energy              =   -2510.74487700 Ry
     estimated scf accuracy    <          2.3E-09 Ry

     total magnetization       =    18.02 Bohr mag/cell
     absolute magnetization    =    18.79 Bohr mag/cell

     iteration # 38     ecut=    90.00 Ry     beta= 0.20
     CG style diagonalization
     ethr =  1.71E-12,  avg # of iterations =  3.0

     negative rho (up, down):  0.000E+00 1.571E-04

     total cpu time spent up to now is   343769.1 secs

     total energy              =   -2510.74487700 Ry
     estimated scf accuracy    <          1.2E-09 Ry

     total magnetization       =    18.02 Bohr mag/cell
     absolute magnetization    =    18.79 Bohr mag/cell

     iteration # 39     ecut=    90.00 Ry     beta= 0.20
     CG style diagonalization
     c_bands:  1 eigenvalues not converged
     ethr =  9.21E-13,  avg # of iterations =  3.0

     negative rho (up, down):  0.000E+00 1.571E-04

     total cpu time spent up to now is   343823.0 secs

     total energy              =   -2510.74487700 Ry
     estimated scf accuracy    <          1.2E-09 Ry

     total magnetization       =    18.02 Bohr mag/cell
     absolute magnetization    =    18.79 Bohr mag/cell

     iteration # 40     ecut=    90.00 Ry     beta= 0.20
     CG style diagonalization
     ethr =  8.85E-13,  avg # of iterations =  3.0

     negative rho (up, down):  0.000E+00 1.571E-04

     total cpu time spent up to now is   343875.7 secs

     total energy              =   -2510.74487700 Ry
     estimated scf accuracy    <          1.0E-09 Ry

     total magnetization       =    18.02 Bohr mag/cell
     absolute magnetization    =    18.79 Bohr mag/cell

     iteration # 41     ecut=    90.00 Ry     beta= 0.20
     CG style diagonalization
     ethr =  7.85E-13,  avg # of iterations =  3.0

     negative rho (up, down):  0.000E+00 1.571E-04

     total cpu time spent up to now is   343927.5 secs

     total energy              =   -2510.74487700 Ry
     estimated scf accuracy    <          8.7E-10 Ry

     total magnetization       =    18.02 Bohr mag/cell
     absolute magnetization    =    18.79 Bohr mag/cell

     iteration # 42     ecut=    90.00 Ry     beta= 0.20
     CG style diagonalization
     ethr =  6.56E-13,  avg # of iterations =  3.3

     negative rho (up, down):  0.000E+00 1.571E-04

     total cpu time spent up to now is   343984.5 secs

     total energy              =   -2510.74487700 Ry
     estimated scf accuracy    <          8.6E-10 Ry

     total magnetization       =    18.02 Bohr mag/cell
     absolute magnetization    =    18.79 Bohr mag/cell

     iteration # 43     ecut=    90.00 Ry     beta= 0.20
     CG style diagonalization
     ethr =  6.51E-13,  avg # of iterations =  3.2

     negative rho (up, down):  0.000E+00 1.571E-04

     total cpu time spent up to now is   344039.4 secs

     total energy              =   -2510.74487700 Ry
     estimated scf accuracy    <          5.2E-10 Ry

     total magnetization       =    18.02 Bohr mag/cell
     absolute magnetization    =    18.79 Bohr mag/cell

     iteration # 44     ecut=    90.00 Ry     beta= 0.20
     CG style diagonalization
     ethr =  3.96E-13,  avg # of iterations =  3.0

     negative rho (up, down):  0.000E+00 1.571E-04

     total cpu time spent up to now is   344090.7 secs

     total energy              =   -2510.74487700 Ry
     estimated scf accuracy    <          2.2E-10 Ry

     total magnetization       =    18.02 Bohr mag/cell
     absolute magnetization    =    18.79 Bohr mag/cell

     iteration # 45     ecut=    90.00 Ry     beta= 0.20
     CG style diagonalization
     ethr =  1.68E-13,  avg # of iterations =  3.2

     negative rho (up, down):  0.000E+00 1.571E-04

     total cpu time spent up to now is   344144.6 secs

     total energy              =   -2510.74487700 Ry
     estimated scf accuracy    <          1.2E-10 Ry

     total magnetization       =    18.02 Bohr mag/cell
     absolute magnetization    =    18.79 Bohr mag/cell

     iteration # 46     ecut=    90.00 Ry     beta= 0.20
     CG style diagonalization
     ethr =  1.00E-13,  avg # of iterations =  3.2

     negative rho (up, down):  0.000E+00 1.571E-04

     Magnetic moment per site:
     atom:    1    charge:   13.8705    magn:    2.7091    constr:    0.0000
     atom:    2    charge:   15.0447    magn:    1.7771    constr:    0.0000
     atom:    3    charge:   13.8727    magn:    2.7033    constr:    0.0000
     atom:    4    charge:   15.0416    magn:    1.7628    constr:    0.0000
     atom:    5    charge:   13.8537    magn:    2.7153    constr:    0.0000
     atom:    6    charge:   15.0569    magn:    1.8123    constr:    0.0000
     atom:    7    charge:   13.8804    magn:    2.6965    constr:    0.0000
     atom:    8    charge:   15.0395    magn:    1.7568    constr:    0.0000

     total cpu time spent up to now is   344198.5 secs

     End of self-consistent calculation

     Number of k-points >= 100: set verbosity='high' to print the bands.

     the Fermi energy is    15.6075 ev

!    total energy              =   -2510.74487700 Ry
     estimated scf accuracy    <          6.1E-11 Ry
     smearing contrib. (-TS)   =      -0.00554544 Ry
     internal energy E=F+TS    =   -2510.73933156 Ry

     total magnetization       =    18.02 Bohr mag/cell
     absolute magnetization    =    18.79 Bohr mag/cell

     convergence has been achieved in  46 iterations

     negative rho (up, down):  0.000E+00 1.571E-04

     Forces acting on atoms (cartesian axes, Ry/au):

     atom    1 type  1   force =    -0.03912794    0.00469256   -0.02926314
     atom    2 type  2   force =    -0.00157754    0.02524128   -0.02548063
     atom    3 type  1   force =    -0.00264998   -0.01890733    0.04448456
     atom    4 type  2   force =    -0.01959429   -0.01832803    0.00061694
     atom    5 type  1   force =     0.01145687   -0.01322133   -0.02494863
     atom    6 type  2   force =     0.01836262   -0.01603777   -0.00975583
     atom    7 type  1   force =     0.02425087    0.03206943    0.01643103
     atom    8 type  2   force =     0.00887939    0.00449120    0.02791570

     Total force =     0.105569     Total SCF correction =     0.000009


     Computing stress (Cartesian axis) and pressure


     negative rho (up, down):  0.000E+00 1.571E-04
          total   stress  (Ry/bohr**3)                   (kbar)     P=      -14.92
  -0.00010767  -0.00005590  -0.00001541          -15.84       -8.22       -2.27
  -0.00005590  -0.00009280   0.00001192           -8.22      -13.65        1.75
  -0.00001541   0.00001192  -0.00010387           -2.27        1.75      -15.28


     Entering Dynamics;  it =   102   time =  0.09772 pico-seconds

  new lattice vectors (alat unit) :
   1.027335570   0.000201497  -0.001916523
   0.000201497   1.025812137   0.002095613
  -0.001916523   0.002095613   1.031771115
  new unit-cell volume =    692.7303 (a.u.)^3
  new positions in cryst coord
Fe      -0.057406786   0.522533042   0.002106103
Co       0.501666863   0.034576449   0.442524281
Fe       0.003579442  -0.000218597   0.559379887
Co       0.435778195   0.443053935   0.000480841
Fe       0.548843690  -0.052848169  -0.052857907
Co       0.006978892   0.496126586   0.491738827
Fe       0.503968880   0.532860367   0.494778147
Co       0.056537651   0.024038300   0.062028302
  new positions in cart coord (alat unit)
Fe      -0.058874781   0.536013582   0.003378065
Co       0.514539071   0.036497384   0.455694774
Fe       0.002605180   0.000948726   0.577144692
Co       0.447778793   0.454578920   0.000589409
Fe       0.563937299  -0.054212473  -0.055699883
Co       0.006327203   0.509964573   0.508388231
Fe       0.516904272   0.547753043   0.510648601
Co       0.057969105   0.024800160   0.063941029

     Ekin =     0.03830647 Ry    T =  407.6 K  Etot =    -2510.70656580
     new unit-cell volume =    692.73034 a.u.^3 (   102.65205 Ang^3 )
     density =      7.42677 g/cm^3

CELL_PARAMETERS (angstrom)
   4.677869783   0.000917495  -0.008726697
   0.000917495   4.670932983   0.009542163
  -0.008726697   0.009542163   4.698066596

ATOMIC_POSITIONS (angstrom)
Fe           -0.2680804286        2.4406842448        0.0153816804
Co            2.3429022077        0.1661871892        2.0749605837
Fe            0.0118624253        0.0043199281        2.6279706412
Co            2.0389159558        2.0698796530        0.0026838131
Fe            2.5678320983       -0.2468510754       -0.2536238465
Co            0.0288102872        2.3220726888        2.3148949732
Fe            2.3536719110        2.4941387045        2.3251873402
Co            0.2639565231        0.1129250477        0.2911490820



     Maximum number of iterations reached, stopping

     init_run     :     21.06s CPU     24.39s WALL (       1 calls)
     electrons    : 332130.66s CPU 341083.23s WALL (     102 calls)
     update_pot   :    208.24s CPU    216.46s WALL (     101 calls)
     forces       :    903.17s CPU    939.01s WALL (     102 calls)
     stress       :   1617.44s CPU   1650.93s WALL (     102 calls)

     Called by init_run:
     wfcinit      :     18.49s CPU     20.03s WALL (       1 calls)
     potinit      :      0.82s CPU      1.22s WALL (       1 calls)
     hinit0       :      1.21s CPU      2.23s WALL (       1 calls)

     Called by electrons:
     c_bands      : 297055.07s CPU 303253.81s WALL (    6003 calls)
     sum_band     :  30669.25s CPU  32447.29s WALL (    6003 calls)
     v_of_rho     :    830.16s CPU    910.59s WALL (    6105 calls)
     newd         :   2298.99s CPU   3044.17s WALL (    6105 calls)
     PAW_pot      :   1180.12s CPU   1299.52s WALL (    6206 calls)
     mix_rho      :     83.70s CPU    104.97s WALL (    6003 calls)

     Called by c_bands:
     init_us_2    :   1454.12s CPU   1504.88s WALL ( 2757888 calls)
     ccgdiagg     : 221545.37s CPU 226099.39s WALL ( 1362622 calls)
     wfcrot       :  72886.77s CPU  74332.18s WALL ( 1339998 calls)

     Called by *cgdiagg:
     h_psi        : 163351.98s CPU 166837.42s WALL (******** calls)
     s_psi        :  51705.71s CPU  52671.77s WALL (******** calls)

     Called by h_psi:
     h_psi:calbec :  35646.40s CPU  36570.41s WALL (******** calls)
     vloc_psi     :  96041.83s CPU  98086.51s WALL (******** calls)
     add_vuspsi   :  29953.61s CPU  30465.02s WALL (******** calls)
     hs_1psi      : 140108.03s CPU 142947.71s WALL (******** calls)
     s_1psi       :  47871.20s CPU  48790.11s WALL (******** calls)

     General routines
     calbec       :  70156.77s CPU  71978.57s WALL (******** calls)
     fft          :    365.19s CPU    470.77s WALL (  156602 calls)
     ffts         :     10.96s CPU     11.25s WALL (   24216 calls)
     fftw         : 102375.58s CPU 104563.45s WALL (******** calls)
     interpolate  :     32.55s CPU     44.79s WALL (   12210 calls)

     Parallel routines
     fft_scatt_xy :   9775.32s CPU   9954.53s WALL (******** calls)
     fft_scatt_yz :  43975.67s CPU  45080.16s WALL (******** calls)

     PWSCF        :   3d21h 5m CPU   3d23h37m WALL


   This run was terminated on:  17: 7:26  20Feb2022            

=------------------------------------------------------------------------------=
   JOB DONE.
=------------------------------------------------------------------------------=
Note: The following floating-point exceptions are signalling: IEEE_INVALID_FLAG IEEE_UNDERFLOW_FLAG IEEE_DENORMAL
Note: The following floating-point exceptions are signalling: IEEE_UNDERFLOW_FLAG IEEE_DENORMAL
Note: The following floating-point exceptions are signalling: IEEE_UNDERFLOW_FLAG IEEE_DENORMAL
Note: The following floating-point exceptions are signalling: IEEE_UNDERFLOW_FLAG IEEE_DENORMAL
Note: The following floating-point exceptions are signalling: IEEE_UNDERFLOW_FLAG IEEE_DENORMAL
Note: The following floating-point exceptions are signalling: IEEE_UNDERFLOW_FLAG IEEE_DENORMAL
Note: The following floating-point exceptions are signalling: IEEE_UNDERFLOW_FLAG IEEE_DENORMAL
Note: The following floating-point exceptions are signalling: IEEE_UNDERFLOW_FLAG IEEE_DENORMAL
Note: The following floating-point exceptions are signalling: IEEE_UNDERFLOW_FLAG IEEE_DENORMAL
Note: The following floating-point exceptions are signalling: IEEE_UNDERFLOW_FLAG IEEE_DENORMAL
Note: The following floating-point exceptions are signalling: IEEE_UNDERFLOW_FLAG IEEE_DENORMAL
Note: The following floating-point exceptions are signalling: IEEE_UNDERFLOW_FLAG IEEE_DENORMAL
Note: The following floating-point exceptions are signalling: IEEE_UNDERFLOW_FLAG IEEE_DENORMAL
Note: The following floating-point exceptions are signalling: IEEE_UNDERFLOW_FLAG IEEE_DENORMAL
Note: The following floating-point exceptions are signalling: IEEE_UNDERFLOW_FLAG IEEE_DENORMAL
Note: The following floating-point exceptions are signalling: IEEE_UNDERFLOW_FLAG IEEE_DENORMAL
Note: The following floating-point exceptions are signalling: IEEE_UNDERFLOW_FLAG IEEE_DENORMAL
Note: The following floating-point exceptions are signalling: IEEE_UNDERFLOW_FLAG IEEE_DENORMAL
Note: The following floating-point exceptions are signalling: IEEE_UNDERFLOW_FLAG IEEE_DENORMAL
Note: The following floating-point exceptions are signalling: IEEE_UNDERFLOW_FLAG IEEE_DENORMAL
Note: The following floating-point exceptions are signalling: IEEE_UNDERFLOW_FLAG IEEE_DENORMAL
Note: The following floating-point exceptions are signalling: IEEE_UNDERFLOW_FLAG IEEE_DENORMAL
Note: The following floating-point exceptions are signalling: IEEE_UNDERFLOW_FLAG IEEE_DENORMAL
Note: The following floating-point exceptions are signalling: IEEE_UNDERFLOW_FLAG IEEE_DENORMAL
