
     Program PWSCF v.6.7MaX starts on  8Dec2021 at 18:49:47 

     This program is part of the open-source Quantum ESPRESSO suite
     for quantum simulation of materials; please cite
         "P. Giannozzi et al., J. Phys.:Condens. Matter 21 395502 (2009);
         "P. Giannozzi et al., J. Phys.:Condens. Matter 29 465901 (2017);
          URL http://www.quantum-espresso.org", 
     in publications or presentations arising from this work. More details at
     http://www.quantum-espresso.org/quote

     Parallel version (MPI), running on    12 processors

     MPI processes distributed on     1 nodes
     R & G space division:  proc/nbgrp/npool/nimage =      12
     Reading input from Opt-B1-CrFe.in

     Current dimensions of program PWSCF are:
     Max number of different atomic species (ntypx) = 10
     Max number of k-points (npk) =  40000
     Max angular momentum in pseudopotentials (lmaxx) =  3
     file Fe.pbe-spn-kjpaw_psl.0.2.1.UPF: wavefunction(s)  3D renormalized

     Subspace diagonalization in iterative solution of the eigenvalue problem:
     a serial algorithm will be used


     Parallelization info
     --------------------
     sticks:   dense  smooth     PW     G-vecs:    dense   smooth      PW
     Min         144      48     16                 3986      774     150
     Max         145      49     17                 3990      777     152
     Sum        1735     583    199                47855     9305    1807



     bravais-lattice index     =            2
     lattice parameter (alat)  =       6.8462  a.u.
     unit-cell volume          =      80.2213 (a.u.)^3
     number of atoms/cell      =            2
     number of atomic types    =            2
     number of electrons       =        30.00
     number of Kohn-Sham states=           19
     kinetic-energy cutoff     =      90.0000  Ry
     charge density cutoff     =    1080.0000  Ry
     scf convergence threshold =      1.0E-08
     mixing beta               =       0.2000
     number of iterations used =            8  plain     mixing
     energy convergence thresh.=      1.0E-05
     force convergence thresh. =      1.0E-04
     press convergence thresh. =      1.0E-01
     Exchange-correlation=  SLA  PW   PBX  PBC
                           (   1   4   3   4   0   0   0)
     nstep                     =          100


     celldm(1)=   6.846205  celldm(2)=   0.000000  celldm(3)=   0.000000
     celldm(4)=   0.000000  celldm(5)=   0.000000  celldm(6)=   0.000000

     crystal axes: (cart. coord. in units of alat)
               a(1) = (  -0.500000   0.000000   0.500000 )  
               a(2) = (   0.000000   0.500000   0.500000 )  
               a(3) = (  -0.500000   0.500000   0.000000 )  

     reciprocal axes: (cart. coord. in units 2 pi/alat)
               b(1) = ( -1.000000 -1.000000  1.000000 )  
               b(2) = (  1.000000  1.000000  1.000000 )  
               b(3) = ( -1.000000  1.000000 -1.000000 )  


     PseudoPot. # 1 for Fe read from file:
     /opt/QEpot/SSSP_efficiency_pseudos/Fe.pbe-spn-kjpaw_psl.0.2.1.UPF
     MD5 check sum: e86618425769142926afa95317d90200
     Pseudo is Projector augmented-wave + core cor, Zval = 16.0
     Generated using "atomic" code by A. Dal Corso  v.5.0.99 svn rev. 10869
     Shape of augmentation charge: PSQ
     Using radial grid of 1191 points,  6 beta functions with: 
                l(1) =   0
                l(2) =   0
                l(3) =   1
                l(4) =   1
                l(5) =   2
                l(6) =   2
     Q(r) pseudized with 0 coefficients 


     PseudoPot. # 2 for Cr read from file:
     /opt/QEpot/SSSP_efficiency_pseudos/cr_pbe_v1.5.uspp.F.UPF
     MD5 check sum: 0d52af634a40206e4dee301ad30da4bf
     Pseudo is Ultrasoft + core correction, Zval = 14.0
     Generated by new atomic code, or converted to UPF format
     Using radial grid of  857 points,  6 beta functions with: 
                l(1) =   0
                l(2) =   0
                l(3) =   1
                l(4) =   1
                l(5) =   2
                l(6) =   2
     Q(r) pseudized with  8 coefficients,  rinner =    0.950   0.950   0.950
                                                       0.950   0.950

     atomic species   valence    mass     pseudopotential
        Fe            16.00    55.84500     Fe( 1.00)
        Cr            14.00    51.99610     Cr( 1.00)

     Starting magnetic structure 
     atomic species   magnetization
        Fe           0.200
        Cr           0.200

     No symmetry found



   Cartesian axes

     site n.     atom                  positions (alat units)
         1           Fe  tau(   1) = (   0.5000000   0.5000000   0.5000000  )
         2           Cr  tau(   2) = (   0.0000000   0.0000000   0.0000000  )

     number of k points=   504  Gaussian smearing, width (Ry)=  0.0100

     Number of k-points >= 100: set verbosity='high' to print them.

     Dense  grid:    47855 G-vectors     FFT dimensions: (  54,  54,  54)

     Smooth grid:     9305 G-vectors     FFT dimensions: (  30,  30,  30)

     Estimated max dynamical RAM per process >      55.54 MB

     Estimated total dynamical RAM >     666.45 MB

     Check: negative core charge=   -0.000010
     Generating pointlists ...
     new r_m :   0.2063 (alat units)  1.4120 (a.u.) for type    1
     new r_m :   0.2063 (alat units)  1.4120 (a.u.) for type    2

     Initial potential from superposition of free atoms

     starting charge   28.99955, renormalised to   30.00000

     negative rho (up, down):  4.675E-04 3.117E-04
     Starting wfcs are   23 randomized atomic wfcs
     Checking if some PAW data can be deallocated... 

     total cpu time spent up to now is        5.3 secs

     Self-consistent Calculation

     iteration #  1     ecut=    90.00 Ry     beta= 0.20
     Davidson diagonalization with overlap
     ethr =  1.00E-02,  avg # of iterations =  2.0

     negative rho (up, down):  3.016E-04 3.538E-04

     total cpu time spent up to now is       13.9 secs

     total energy              =    -503.22831593 Ry
     estimated scf accuracy    <       1.46797929 Ry

     total magnetization       =     1.80 Bohr mag/cell
     absolute magnetization    =     1.81 Bohr mag/cell

     iteration #  2     ecut=    90.00 Ry     beta= 0.20
     Davidson diagonalization with overlap
     ethr =  4.89E-03,  avg # of iterations =  1.9

     negative rho (up, down):  3.318E-04 4.564E-04

     total cpu time spent up to now is       21.3 secs

     total energy              =    -503.44660405 Ry
     estimated scf accuracy    <       0.78429881 Ry

     total magnetization       =     1.12 Bohr mag/cell
     absolute magnetization    =     1.12 Bohr mag/cell

     iteration #  3     ecut=    90.00 Ry     beta= 0.20
     Davidson diagonalization with overlap
     ethr =  2.61E-03,  avg # of iterations =  1.0

     negative rho (up, down):  2.064E-04 8.557E-04

     total cpu time spent up to now is       28.0 secs

     total energy              =    -503.53947722 Ry
     estimated scf accuracy    <       0.23470620 Ry

     total magnetization       =     1.26 Bohr mag/cell
     absolute magnetization    =     1.27 Bohr mag/cell

     iteration #  4     ecut=    90.00 Ry     beta= 0.20
     Davidson diagonalization with overlap
     ethr =  7.82E-04,  avg # of iterations =  2.0

     negative rho (up, down):  1.699E-04 7.815E-04

     total cpu time spent up to now is       36.2 secs

     total energy              =    -503.58393207 Ry
     estimated scf accuracy    <       0.07465370 Ry

     total magnetization       =     0.78 Bohr mag/cell
     absolute magnetization    =     0.79 Bohr mag/cell

     iteration #  5     ecut=    90.00 Ry     beta= 0.20
     Davidson diagonalization with overlap
     ethr =  2.49E-04,  avg # of iterations =  1.1

     negative rho (up, down):  1.092E-04 7.806E-04

     total cpu time spent up to now is       42.9 secs

     total energy              =    -503.60251924 Ry
     estimated scf accuracy    <       0.03659580 Ry

     total magnetization       =     0.70 Bohr mag/cell
     absolute magnetization    =     0.70 Bohr mag/cell

     iteration #  6     ecut=    90.00 Ry     beta= 0.20
     Davidson diagonalization with overlap
     ethr =  1.22E-04,  avg # of iterations =  1.6

     negative rho (up, down):  1.145E-04 7.680E-04

     total cpu time spent up to now is       50.2 secs

     total energy              =    -503.61128167 Ry
     estimated scf accuracy    <       0.02103005 Ry

     total magnetization       =     0.36 Bohr mag/cell
     absolute magnetization    =     0.36 Bohr mag/cell

     iteration #  7     ecut=    90.00 Ry     beta= 0.20
     Davidson diagonalization with overlap
     ethr =  7.01E-05,  avg # of iterations =  1.0

     negative rho (up, down):  2.273E-04 6.527E-04

     total cpu time spent up to now is       56.9 secs

     total energy              =    -503.61193801 Ry
     estimated scf accuracy    <       0.01072513 Ry

     total magnetization       =     0.33 Bohr mag/cell
     absolute magnetization    =     0.33 Bohr mag/cell

     iteration #  8     ecut=    90.00 Ry     beta= 0.20
     Davidson diagonalization with overlap
     ethr =  3.58E-05,  avg # of iterations =  1.1

     negative rho (up, down):  3.118E-04 5.562E-04

     total cpu time spent up to now is       63.6 secs

     total energy              =    -503.61123746 Ry
     estimated scf accuracy    <       0.00890834 Ry

     total magnetization       =     0.24 Bohr mag/cell
     absolute magnetization    =     0.25 Bohr mag/cell

     iteration #  9     ecut=    90.00 Ry     beta= 0.20
     Davidson diagonalization with overlap
     ethr =  2.97E-05,  avg # of iterations =  1.1

     negative rho (up, down):  3.027E-04 5.611E-04

     total cpu time spent up to now is       70.3 secs

     total energy              =    -503.61168006 Ry
     estimated scf accuracy    <       0.00151077 Ry

     total magnetization       =     0.19 Bohr mag/cell
     absolute magnetization    =     0.19 Bohr mag/cell

     iteration # 10     ecut=    90.00 Ry     beta= 0.20
     Davidson diagonalization with overlap
     ethr =  5.04E-06,  avg # of iterations =  2.1

     negative rho (up, down):  4.250E-04 4.302E-04

     total cpu time spent up to now is       77.7 secs

     total energy              =    -503.61143987 Ry
     estimated scf accuracy    <       0.00050068 Ry

     total magnetization       =     0.16 Bohr mag/cell
     absolute magnetization    =     0.16 Bohr mag/cell

     iteration # 11     ecut=    90.00 Ry     beta= 0.20
     Davidson diagonalization with overlap
     ethr =  1.67E-06,  avg # of iterations =  2.6

     negative rho (up, down):  4.029E-04 4.488E-04

     total cpu time spent up to now is       86.7 secs

     total energy              =    -503.61186427 Ry
     estimated scf accuracy    <       0.00109489 Ry

     total magnetization       =     0.01 Bohr mag/cell
     absolute magnetization    =     0.01 Bohr mag/cell

     iteration # 12     ecut=    90.00 Ry     beta= 0.20
     Davidson diagonalization with overlap
     ethr =  1.67E-06,  avg # of iterations =  1.9

     negative rho (up, down):  4.001E-04 4.584E-04

     total cpu time spent up to now is       94.2 secs

     total energy              =    -503.61200726 Ry
     estimated scf accuracy    <       0.00003077 Ry

     total magnetization       =     0.04 Bohr mag/cell
     absolute magnetization    =     0.04 Bohr mag/cell

     iteration # 13     ecut=    90.00 Ry     beta= 0.20
     Davidson diagonalization with overlap
     ethr =  1.03E-07,  avg # of iterations =  4.1

     negative rho (up, down):  4.127E-04 4.463E-04

     total cpu time spent up to now is      104.7 secs

     total energy              =    -503.61202102 Ry
     estimated scf accuracy    <       0.00003483 Ry

     total magnetization       =     0.05 Bohr mag/cell
     absolute magnetization    =     0.05 Bohr mag/cell

     iteration # 14     ecut=    90.00 Ry     beta= 0.20
     Davidson diagonalization with overlap
     ethr =  1.03E-07,  avg # of iterations =  1.3

     negative rho (up, down):  4.239E-04 4.350E-04

     total cpu time spent up to now is      111.5 secs

     total energy              =    -503.61202727 Ry
     estimated scf accuracy    <       0.00000763 Ry

     total magnetization       =     0.03 Bohr mag/cell
     absolute magnetization    =     0.03 Bohr mag/cell

     iteration # 15     ecut=    90.00 Ry     beta= 0.20
     Davidson diagonalization with overlap
     ethr =  2.54E-08,  avg # of iterations =  2.3

     negative rho (up, down):  4.277E-04 4.312E-04

     total cpu time spent up to now is      119.5 secs

     total energy              =    -503.61203489 Ry
     estimated scf accuracy    <       0.00000081 Ry

     total magnetization       =     0.01 Bohr mag/cell
     absolute magnetization    =     0.01 Bohr mag/cell

     iteration # 16     ecut=    90.00 Ry     beta= 0.20
     Davidson diagonalization with overlap
     ethr =  2.72E-09,  avg # of iterations =  3.9

     negative rho (up, down):  4.300E-04 4.289E-04

     total cpu time spent up to now is      129.0 secs

     total energy              =    -503.61203572 Ry
     estimated scf accuracy    <       0.00000016 Ry

     total magnetization       =     0.00 Bohr mag/cell
     absolute magnetization    =     0.00 Bohr mag/cell

     iteration # 17     ecut=    90.00 Ry     beta= 0.20
     Davidson diagonalization with overlap
     ethr =  5.17E-10,  avg # of iterations =  3.9

     negative rho (up, down):  4.294E-04 4.297E-04

     total cpu time spent up to now is      138.6 secs

     total energy              =    -503.61203594 Ry
     estimated scf accuracy    <       0.00000001 Ry

     total magnetization       =    -0.00 Bohr mag/cell
     absolute magnetization    =     0.00 Bohr mag/cell

     iteration # 18     ecut=    90.00 Ry     beta= 0.20
     Davidson diagonalization with overlap
     ethr =  4.43E-11,  avg # of iterations =  3.0

     negative rho (up, down):  4.294E-04 4.296E-04

     Magnetic moment per site:
     atom:    1    charge:   13.3938    magn:    0.0000    constr:    0.0000
     atom:    2    charge:   11.1090    magn:    0.0001    constr:    0.0000

     total cpu time spent up to now is      148.2 secs

     End of self-consistent calculation

     Number of k-points >= 100: set verbosity='high' to print the bands.

     the Fermi energy is    39.7279 ev

!    total energy              =    -503.61203602 Ry
     estimated scf accuracy    <          3.1E-09 Ry
     smearing contrib. (-TS)   =      -0.00149275 Ry
     internal energy E=F+TS    =    -503.61054327 Ry

     The total energy is F=E-TS. E is the sum of the following terms:
     one-electron contribution =     -69.33845361 Ry
     hartree contribution      =      75.28850458 Ry
     xc contribution           =     -59.39040744 Ry
     ewald contribution        =    -374.01130649 Ry
     one-center paw contrib.   =     -76.15888031 Ry

     total magnetization       =     0.00 Bohr mag/cell
     absolute magnetization    =     0.00 Bohr mag/cell

     convergence has been achieved in  18 iterations

     negative rho (up, down):  4.294E-04 4.296E-04

     Forces acting on atoms (cartesian axes, Ry/au):

     atom    1 type  1   force =     0.00000300    0.00000067   -0.00000215
     atom    2 type  2   force =    -0.00000300   -0.00000067    0.00000215

     Total force =     0.000005     Total SCF correction =     0.000029
     SCF correction compared to forces is large: reduce conv_thr to get better values


     Computing stress (Cartesian axis) and pressure


     negative rho (up, down):  4.294E-04 4.296E-04
          total   stress  (Ry/bohr**3)                   (kbar)     P=     6682.02
   0.04542343  -0.00000002   0.00000001         6682.02       -0.00        0.00
  -0.00000002   0.04542344   0.00000004           -0.00     6682.02        0.01
   0.00000001   0.00000004   0.04542348            0.00        0.01     6682.03


     BFGS Geometry Optimization
     Energy error            =      0.0E+00
     Gradient error          =      3.0E-06
     Cell gradient error     =      4.5E-02


     number of scf cycles    =   1
     number of bfgs steps    =   0

     enthalpy new            =    -503.6120360225 Ry

     new trust radius        =       0.5000000000 bohr
     new conv_thr            =       0.0000000100 Ry

     new unit-cell volume =    167.89049 a.u.^3 (    24.87880 Ang^3 )
     density =      7.19787 g/cm^3

CELL_PARAMETERS (alat=  6.84620477)
  -0.639561159   0.000000170   0.639561322
  -0.000000024   0.639561319   0.639561467
  -0.639561256   0.639561270   0.000000073

ATOMIC_POSITIONS (alat)
Fe            0.6395613088        0.6395612886        0.6395614049
Cr           -0.0000001376       -0.0000000306        0.0000000985



     Writing output data file ./pwscf.save/
     NEW-OLD atomic charge density approx. for the potential

     Check: negative core charge=   -0.000015

     negative rho (up, down):  4.706E-04 4.710E-04
     extrapolated charge   45.14301, renormalised to   30.00000
     Generating pointlists ...

     total cpu time spent up to now is      152.5 secs

     Self-consistent Calculation

     iteration #  1     ecut=    90.00 Ry     beta= 0.20
     Davidson diagonalization with overlap
     c_bands:  2 eigenvalues not converged
     c_bands:  3 eigenvalues not converged
     c_bands:  1 eigenvalues not converged
     c_bands:  1 eigenvalues not converged
     c_bands:  1 eigenvalues not converged
     c_bands:  1 eigenvalues not converged
     c_bands:  3 eigenvalues not converged
     c_bands:  1 eigenvalues not converged
     c_bands:  1 eigenvalues not converged
     c_bands:  1 eigenvalues not converged
     c_bands:  1 eigenvalues not converged
     c_bands:  1 eigenvalues not converged
     c_bands:  5 eigenvalues not converged
     c_bands:  3 eigenvalues not converged
     c_bands:  1 eigenvalues not converged
     c_bands:  1 eigenvalues not converged
     c_bands:  1 eigenvalues not converged
     c_bands:  1 eigenvalues not converged
     c_bands:  1 eigenvalues not converged
     c_bands:  1 eigenvalues not converged
     c_bands:  1 eigenvalues not converged
     c_bands:  1 eigenvalues not converged
     c_bands:  1 eigenvalues not converged
     c_bands:  1 eigenvalues not converged
     c_bands:  2 eigenvalues not converged
     c_bands:  1 eigenvalues not converged
     c_bands:  1 eigenvalues not converged
     c_bands:  1 eigenvalues not converged
     c_bands:  3 eigenvalues not converged
     c_bands:  1 eigenvalues not converged
     c_bands:  1 eigenvalues not converged
     c_bands:  1 eigenvalues not converged
     c_bands:  2 eigenvalues not converged
     c_bands:  1 eigenvalues not converged
     c_bands:  1 eigenvalues not converged
     c_bands:  1 eigenvalues not converged
     c_bands:  1 eigenvalues not converged
     c_bands:  1 eigenvalues not converged
     c_bands:  2 eigenvalues not converged
     c_bands:  2 eigenvalues not converged
     c_bands:  1 eigenvalues not converged
     c_bands:  1 eigenvalues not converged
     c_bands:  1 eigenvalues not converged
     c_bands:  1 eigenvalues not converged
     c_bands:  1 eigenvalues not converged
     c_bands:  1 eigenvalues not converged
     c_bands:  1 eigenvalues not converged
     c_bands:  1 eigenvalues not converged
     c_bands:  1 eigenvalues not converged
     c_bands:  1 eigenvalues not converged
     c_bands:  3 eigenvalues not converged
     c_bands:  1 eigenvalues not converged
     c_bands:  1 eigenvalues not converged
     c_bands:  1 eigenvalues not converged
     c_bands:  1 eigenvalues not converged
     c_bands:  1 eigenvalues not converged
     c_bands:  1 eigenvalues not converged
     c_bands:  1 eigenvalues not converged
     c_bands:  1 eigenvalues not converged
     c_bands:  1 eigenvalues not converged
     c_bands:  1 eigenvalues not converged
     c_bands:  1 eigenvalues not converged
     c_bands:  1 eigenvalues not converged
     c_bands:  1 eigenvalues not converged
     c_bands:  1 eigenvalues not converged
     c_bands:  1 eigenvalues not converged
     c_bands:  1 eigenvalues not converged
     c_bands:  1 eigenvalues not converged
     c_bands:  1 eigenvalues not converged
     c_bands:  1 eigenvalues not converged
     c_bands:  1 eigenvalues not converged
     c_bands:  1 eigenvalues not converged
     c_bands:  2 eigenvalues not converged
     c_bands:  1 eigenvalues not converged
     c_bands:  2 eigenvalues not converged
     c_bands:  1 eigenvalues not converged
     c_bands:  1 eigenvalues not converged
     c_bands:  1 eigenvalues not converged
     c_bands:  2 eigenvalues not converged
     c_bands:  1 eigenvalues not converged
     c_bands:  1 eigenvalues not converged
     c_bands:  1 eigenvalues not converged
     c_bands:  1 eigenvalues not converged
     c_bands:  1 eigenvalues not converged
     c_bands:  1 eigenvalues not converged
     c_bands:  5 eigenvalues not converged
     c_bands:  2 eigenvalues not converged
     c_bands:  1 eigenvalues not converged
     c_bands:  1 eigenvalues not converged
     c_bands:  1 eigenvalues not converged
     c_bands:  1 eigenvalues not converged
     c_bands:  1 eigenvalues not converged
     c_bands:  1 eigenvalues not converged
     c_bands:  1 eigenvalues not converged
     c_bands:  1 eigenvalues not converged
     c_bands:  1 eigenvalues not converged
     c_bands:  1 eigenvalues not converged
     c_bands:  3 eigenvalues not converged
     c_bands:  1 eigenvalues not converged
     c_bands:  1 eigenvalues not converged
     c_bands:  1 eigenvalues not converged
     c_bands:  1 eigenvalues not converged
     c_bands:  1 eigenvalues not converged
     c_bands:  1 eigenvalues not converged
     c_bands:  1 eigenvalues not converged
     c_bands:  1 eigenvalues not converged
     c_bands:  1 eigenvalues not converged
     c_bands:  1 eigenvalues not converged
     c_bands:  1 eigenvalues not converged
     c_bands:  1 eigenvalues not converged
     c_bands:  2 eigenvalues not converged
     c_bands:  1 eigenvalues not converged
     c_bands:  1 eigenvalues not converged
     c_bands:  1 eigenvalues not converged
     c_bands:  1 eigenvalues not converged
     c_bands:  1 eigenvalues not converged
     c_bands:  1 eigenvalues not converged
     c_bands:  1 eigenvalues not converged
     c_bands:  1 eigenvalues not converged
     c_bands:  5 eigenvalues not converged
     c_bands:  1 eigenvalues not converged
     c_bands:  1 eigenvalues not converged
     c_bands:  1 eigenvalues not converged
     c_bands:  1 eigenvalues not converged
     c_bands:  1 eigenvalues not converged
     c_bands:  1 eigenvalues not converged
     c_bands:  4 eigenvalues not converged
     c_bands:  2 eigenvalues not converged
     c_bands:  1 eigenvalues not converged
     c_bands:  1 eigenvalues not converged
     c_bands:  1 eigenvalues not converged
     c_bands:  1 eigenvalues not converged
     c_bands:  1 eigenvalues not converged
     c_bands:  2 eigenvalues not converged
     c_bands:  3 eigenvalues not converged
     c_bands:  2 eigenvalues not converged
     c_bands:  1 eigenvalues not converged
     c_bands:  5 eigenvalues not converged
     c_bands:  1 eigenvalues not converged
     c_bands:  3 eigenvalues not converged
     c_bands:  1 eigenvalues not converged
     c_bands:  1 eigenvalues not converged
     c_bands:  1 eigenvalues not converged
     c_bands:  1 eigenvalues not converged
     c_bands:  1 eigenvalues not converged
     c_bands:  1 eigenvalues not converged
     c_bands:  1 eigenvalues not converged
     c_bands:  1 eigenvalues not converged
     c_bands:  1 eigenvalues not converged
     c_bands:  1 eigenvalues not converged
     c_bands:  5 eigenvalues not converged
     c_bands:  1 eigenvalues not converged
     c_bands:  1 eigenvalues not converged
     c_bands:  4 eigenvalues not converged
     c_bands:  2 eigenvalues not converged
     c_bands:  2 eigenvalues not converged
     c_bands:  1 eigenvalues not converged
     c_bands:  1 eigenvalues not converged
     c_bands:  1 eigenvalues not converged
     c_bands:  1 eigenvalues not converged
     c_bands:  1 eigenvalues not converged
     c_bands:  1 eigenvalues not converged
     c_bands:  1 eigenvalues not converged
     c_bands:  1 eigenvalues not converged
     c_bands:  1 eigenvalues not converged
     c_bands:  1 eigenvalues not converged
     c_bands:  1 eigenvalues not converged
     c_bands:  1 eigenvalues not converged
     c_bands:  1 eigenvalues not converged
     c_bands:  2 eigenvalues not converged
     c_bands:  1 eigenvalues not converged
     c_bands:  1 eigenvalues not converged
     c_bands:  1 eigenvalues not converged
     c_bands:  2 eigenvalues not converged
     c_bands:  1 eigenvalues not converged
     c_bands:  1 eigenvalues not converged
     c_bands:  1 eigenvalues not converged
     c_bands:  1 eigenvalues not converged
     c_bands:  1 eigenvalues not converged
     c_bands:  3 eigenvalues not converged
     c_bands:  1 eigenvalues not converged
     c_bands:  2 eigenvalues not converged
     c_bands:  1 eigenvalues not converged
     c_bands:  1 eigenvalues not converged
     c_bands:  2 eigenvalues not converged
     c_bands:  3 eigenvalues not converged
     c_bands:  4 eigenvalues not converged
     c_bands:  1 eigenvalues not converged
     c_bands:  1 eigenvalues not converged
     c_bands:  1 eigenvalues not converged
     c_bands:  1 eigenvalues not converged
     c_bands:  1 eigenvalues not converged
     c_bands:  1 eigenvalues not converged
     c_bands:  1 eigenvalues not converged
     c_bands:  4 eigenvalues not converged
     c_bands:  1 eigenvalues not converged
     c_bands:  1 eigenvalues not converged
     c_bands:  1 eigenvalues not converged
     c_bands:  1 eigenvalues not converged
     c_bands:  1 eigenvalues not converged
     c_bands:  1 eigenvalues not converged
     c_bands:  1 eigenvalues not converged
     c_bands:  1 eigenvalues not converged
     c_bands:  1 eigenvalues not converged
     c_bands:  1 eigenvalues not converged
     c_bands:  1 eigenvalues not converged
     c_bands:  1 eigenvalues not converged
     c_bands:  1 eigenvalues not converged
     c_bands:  1 eigenvalues not converged
     c_bands:  1 eigenvalues not converged
     c_bands:  1 eigenvalues not converged
     c_bands:  1 eigenvalues not converged
     c_bands:  1 eigenvalues not converged
     c_bands:  1 eigenvalues not converged
     c_bands:  1 eigenvalues not converged
     c_bands:  1 eigenvalues not converged
     c_bands:  1 eigenvalues not converged
     c_bands:  1 eigenvalues not converged
     c_bands:  1 eigenvalues not converged
     c_bands:  1 eigenvalues not converged
     c_bands:  1 eigenvalues not converged
     c_bands:  1 eigenvalues not converged
     c_bands:  1 eigenvalues not converged
     c_bands:  2 eigenvalues not converged
     c_bands:  1 eigenvalues not converged
     c_bands:  1 eigenvalues not converged
     c_bands:  1 eigenvalues not converged
     c_bands:  1 eigenvalues not converged
     c_bands:  1 eigenvalues not converged
     c_bands:  2 eigenvalues not converged
     c_bands:  1 eigenvalues not converged
     c_bands:  1 eigenvalues not converged
     c_bands:  1 eigenvalues not converged
     c_bands:  1 eigenvalues not converged
     c_bands:  1 eigenvalues not converged
     c_bands:  1 eigenvalues not converged
     c_bands:  1 eigenvalues not converged
     c_bands:  1 eigenvalues not converged
     c_bands:  3 eigenvalues not converged
     c_bands:  1 eigenvalues not converged
     c_bands:  1 eigenvalues not converged
     c_bands:  1 eigenvalues not converged
     c_bands:  1 eigenvalues not converged
     c_bands:  1 eigenvalues not converged
     c_bands:  1 eigenvalues not converged
     c_bands:  1 eigenvalues not converged
     c_bands:  1 eigenvalues not converged
     c_bands:  2 eigenvalues not converged
     c_bands:  1 eigenvalues not converged
     c_bands:  1 eigenvalues not converged
     c_bands:  1 eigenvalues not converged
     c_bands:  1 eigenvalues not converged
     c_bands:  1 eigenvalues not converged
     c_bands:  1 eigenvalues not converged
     c_bands:  1 eigenvalues not converged
     c_bands:  1 eigenvalues not converged
     c_bands:  1 eigenvalues not converged
     c_bands:  1 eigenvalues not converged
     c_bands:  4 eigenvalues not converged
     c_bands:  1 eigenvalues not converged
     c_bands:  1 eigenvalues not converged
     c_bands:  1 eigenvalues not converged
     c_bands:  1 eigenvalues not converged
     c_bands:  1 eigenvalues not converged
     c_bands:  1 eigenvalues not converged
     c_bands:  5 eigenvalues not converged
     c_bands:  2 eigenvalues not converged
     c_bands:  1 eigenvalues not converged
     c_bands:  1 eigenvalues not converged
     c_bands:  1 eigenvalues not converged
     c_bands:  1 eigenvalues not converged
     c_bands:  1 eigenvalues not converged
     c_bands:  1 eigenvalues not converged
     c_bands:  1 eigenvalues not converged
     c_bands:  1 eigenvalues not converged
     c_bands:  3 eigenvalues not converged
     c_bands:  3 eigenvalues not converged
     ethr =  1.00E-06,  avg # of iterations = 36.0

     negative rho (up, down):  9.041E-04 9.043E-04

     total cpu time spent up to now is      235.0 secs

     total energy              =    -465.10279526 Ry
     estimated scf accuracy    <      32.07883555 Ry

     total magnetization       =     0.00 Bohr mag/cell
     absolute magnetization    =     0.00 Bohr mag/cell

     iteration #  2     ecut=    90.00 Ry     beta= 0.20
     Davidson diagonalization with overlap
     ethr =  1.00E-02,  avg # of iterations =  8.1

     negative rho (up, down):  6.081E-04 6.092E-04

     total cpu time spent up to now is      253.4 secs

     total energy              =    -512.34723444 Ry
     estimated scf accuracy    <      43.28077407 Ry

     total magnetization       =     0.00 Bohr mag/cell
     absolute magnetization    =     0.00 Bohr mag/cell

     iteration #  3     ecut=    90.00 Ry     beta= 0.20
     Davidson diagonalization with overlap
     ethr =  1.00E-02,  avg # of iterations =  2.0

     negative rho (up, down):  1.171E-04 1.177E-04

     total cpu time spent up to now is      261.2 secs

     total energy              =    -498.06711515 Ry
     estimated scf accuracy    <      30.16646112 Ry

     total magnetization       =     0.01 Bohr mag/cell
     absolute magnetization    =     0.01 Bohr mag/cell

     iteration #  4     ecut=    90.00 Ry     beta= 0.20
     Davidson diagonalization with overlap
     ethr =  1.00E-02,  avg # of iterations =  4.9

     negative rho (up, down):  1.143E-04 1.149E-04

     total cpu time spent up to now is      273.4 secs

     total energy              =    -509.28995662 Ry
     estimated scf accuracy    <      40.95707880 Ry

     total magnetization       =    -0.00 Bohr mag/cell
     absolute magnetization    =     0.00 Bohr mag/cell

     iteration #  5     ecut=    90.00 Ry     beta= 0.20
     Davidson diagonalization with overlap
     ethr =  1.00E-02,  avg # of iterations =  1.0

     negative rho (up, down):  1.134E-04 1.139E-04

     total cpu time spent up to now is      280.1 secs

     total energy              =    -502.75607978 Ry
     estimated scf accuracy    <      39.32729937 Ry

     total magnetization       =     0.00 Bohr mag/cell
     absolute magnetization    =     0.00 Bohr mag/cell

     iteration #  6     ecut=    90.00 Ry     beta= 0.20
     Davidson diagonalization with overlap
     ethr =  1.00E-02,  avg # of iterations =  3.3

     negative rho (up, down):  1.128E-04 1.132E-04

     total cpu time spent up to now is      290.0 secs

     total energy              =    -505.76315754 Ry
     estimated scf accuracy    <       5.00962832 Ry

     total magnetization       =     0.00 Bohr mag/cell
     absolute magnetization    =     0.00 Bohr mag/cell

     iteration #  7     ecut=    90.00 Ry     beta= 0.20
     Davidson diagonalization with overlap
     ethr =  1.00E-02,  avg # of iterations =  1.6

     negative rho (up, down):  1.110E-04 1.115E-04

     total cpu time spent up to now is      297.1 secs

     total energy              =    -505.92338625 Ry
     estimated scf accuracy    <      11.41900402 Ry

     total magnetization       =     0.01 Bohr mag/cell
     absolute magnetization    =     0.01 Bohr mag/cell

     iteration #  8     ecut=    90.00 Ry     beta= 0.20
     Davidson diagonalization with overlap
     ethr =  1.00E-02,  avg # of iterations =  1.2

     negative rho (up, down):  1.115E-04 1.116E-04

     total cpu time spent up to now is      303.9 secs

     total energy              =    -505.78638518 Ry
     estimated scf accuracy    <      11.56069344 Ry

     total magnetization       =     0.00 Bohr mag/cell
     absolute magnetization    =     0.00 Bohr mag/cell

     iteration #  9     ecut=    90.00 Ry     beta= 0.20
     Davidson diagonalization with overlap
     ethr =  1.00E-02,  avg # of iterations =  1.0

     negative rho (up, down):  1.272E-04 1.243E-04

     total cpu time spent up to now is      310.6 secs

     total energy              =    -504.20795835 Ry
     estimated scf accuracy    <      10.79891785 Ry

     total magnetization       =     0.00 Bohr mag/cell
     absolute magnetization    =     0.00 Bohr mag/cell

     iteration # 10     ecut=    90.00 Ry     beta= 0.20
     Davidson diagonalization with overlap
     ethr =  1.00E-02,  avg # of iterations =  1.8

     negative rho (up, down):  1.256E-04 1.247E-04

     total cpu time spent up to now is      317.9 secs

     total energy              =    -504.51981859 Ry
     estimated scf accuracy    <       0.50937582 Ry

     total magnetization       =    -0.02 Bohr mag/cell
     absolute magnetization    =     0.03 Bohr mag/cell

     iteration # 11     ecut=    90.00 Ry     beta= 0.20
     Davidson diagonalization with overlap
     ethr =  1.70E-03,  avg # of iterations =  2.5

     negative rho (up, down):  1.410E-04 1.416E-04

     total cpu time spent up to now is      326.3 secs

     total energy              =    -504.28310831 Ry
     estimated scf accuracy    <       2.02437660 Ry

     total magnetization       =    -0.00 Bohr mag/cell
     absolute magnetization    =     0.00 Bohr mag/cell

     iteration # 12     ecut=    90.00 Ry     beta= 0.20
     Davidson diagonalization with overlap
     ethr =  1.70E-03,  avg # of iterations =  3.3

     negative rho (up, down):  1.162E-04 1.133E-04

     total cpu time spent up to now is      335.3 secs

     total energy              =    -504.22348167 Ry
     estimated scf accuracy    <       8.62114481 Ry

     total magnetization       =     0.01 Bohr mag/cell
     absolute magnetization    =     0.01 Bohr mag/cell

     iteration # 13     ecut=    90.00 Ry     beta= 0.20
     Davidson diagonalization with overlap
     ethr =  1.70E-03,  avg # of iterations =  2.6

     negative rho (up, down):  1.196E-04 1.166E-04

     total cpu time spent up to now is      343.6 secs

     total energy              =    -504.67054256 Ry
     estimated scf accuracy    <       0.36061451 Ry

     total magnetization       =    -0.01 Bohr mag/cell
     absolute magnetization    =     0.01 Bohr mag/cell

     iteration # 14     ecut=    90.00 Ry     beta= 0.20
     Davidson diagonalization with overlap
     ethr =  1.20E-03,  avg # of iterations =  1.0

     negative rho (up, down):  2.094E-04 1.622E-04

     total cpu time spent up to now is      350.2 secs

     total energy              =    -504.61289535 Ry
     estimated scf accuracy    <       0.44575675 Ry

     total magnetization       =    -0.01 Bohr mag/cell
     absolute magnetization    =     0.01 Bohr mag/cell

     iteration # 15     ecut=    90.00 Ry     beta= 0.20
     Davidson diagonalization with overlap
     ethr =  1.20E-03,  avg # of iterations =  1.0

     negative rho (up, down):  1.579E-04 1.547E-04

     total cpu time spent up to now is      356.9 secs

     total energy              =    -504.62656170 Ry
     estimated scf accuracy    <       0.04776315 Ry

     total magnetization       =    -0.01 Bohr mag/cell
     absolute magnetization    =     0.02 Bohr mag/cell

     iteration # 16     ecut=    90.00 Ry     beta= 0.20
     Davidson diagonalization with overlap
     ethr =  1.59E-04,  avg # of iterations =  1.7

     negative rho (up, down):  1.566E-04 1.550E-04

     total cpu time spent up to now is      364.2 secs

     total energy              =    -504.63377179 Ry
     estimated scf accuracy    <       0.17379018 Ry

     total magnetization       =    -0.01 Bohr mag/cell
     absolute magnetization    =     0.02 Bohr mag/cell

     iteration # 17     ecut=    90.00 Ry     beta= 0.20
     Davidson diagonalization with overlap
     ethr =  1.59E-04,  avg # of iterations =  1.0

     negative rho (up, down):  2.202E-04 1.940E-04

     total cpu time spent up to now is      370.8 secs

     total energy              =    -504.62961134 Ry
     estimated scf accuracy    <       0.22971291 Ry

     total magnetization       =    -0.00 Bohr mag/cell
     absolute magnetization    =     0.01 Bohr mag/cell

     iteration # 18     ecut=    90.00 Ry     beta= 0.20
     Davidson diagonalization with overlap
     ethr =  1.59E-04,  avg # of iterations =  1.0

     negative rho (up, down):  2.928E-04 2.661E-04

     total cpu time spent up to now is      377.5 secs

     total energy              =    -504.62068956 Ry
     estimated scf accuracy    <       0.17054733 Ry

     total magnetization       =    -0.01 Bohr mag/cell
     absolute magnetization    =     0.01 Bohr mag/cell

     iteration # 19     ecut=    90.00 Ry     beta= 0.20
     Davidson diagonalization with overlap
     ethr =  1.59E-04,  avg # of iterations =  1.0

     negative rho (up, down):  2.861E-04 2.619E-04

     total cpu time spent up to now is      384.1 secs

     total energy              =    -504.62408324 Ry
     estimated scf accuracy    <       0.02209626 Ry

     total magnetization       =    -0.01 Bohr mag/cell
     absolute magnetization    =     0.01 Bohr mag/cell

     iteration # 20     ecut=    90.00 Ry     beta= 0.20
     Davidson diagonalization with overlap
     ethr =  7.37E-05,  avg # of iterations =  1.1

     negative rho (up, down):  2.897E-04 2.760E-04

     total cpu time spent up to now is      390.9 secs

     total energy              =    -504.62234712 Ry
     estimated scf accuracy    <       0.01508432 Ry

     total magnetization       =    -0.00 Bohr mag/cell
     absolute magnetization    =     0.01 Bohr mag/cell

     iteration # 21     ecut=    90.00 Ry     beta= 0.20
     Davidson diagonalization with overlap
     ethr =  5.03E-05,  avg # of iterations =  1.1

     negative rho (up, down):  2.872E-04 2.772E-04

     total cpu time spent up to now is      397.7 secs

     total energy              =    -504.62262162 Ry
     estimated scf accuracy    <       0.00122928 Ry

     total magnetization       =    -0.00 Bohr mag/cell
     absolute magnetization    =     0.01 Bohr mag/cell

     iteration # 22     ecut=    90.00 Ry     beta= 0.20
     Davidson diagonalization with overlap
     ethr =  4.10E-06,  avg # of iterations =  3.0

     negative rho (up, down):  2.917E-04 2.817E-04

     total cpu time spent up to now is      406.1 secs

     total energy              =    -504.62277988 Ry
     estimated scf accuracy    <       0.00005692 Ry

     total magnetization       =    -0.00 Bohr mag/cell
     absolute magnetization    =     0.01 Bohr mag/cell

     iteration # 23     ecut=    90.00 Ry     beta= 0.20
     Davidson diagonalization with overlap
     ethr =  1.90E-07,  avg # of iterations =  5.1

     negative rho (up, down):  2.943E-04 2.838E-04

     total cpu time spent up to now is      417.8 secs

     total energy              =    -504.62281478 Ry
     estimated scf accuracy    <       0.00003406 Ry

     total magnetization       =    -0.00 Bohr mag/cell
     absolute magnetization    =     0.01 Bohr mag/cell

     iteration # 24     ecut=    90.00 Ry     beta= 0.20
     Davidson diagonalization with overlap
     ethr =  1.14E-07,  avg # of iterations =  1.8

     negative rho (up, down):  3.059E-04 2.956E-04

     total cpu time spent up to now is      425.1 secs

     total energy              =    -504.62281859 Ry
     estimated scf accuracy    <       0.00000263 Ry

     total magnetization       =    -0.00 Bohr mag/cell
     absolute magnetization    =     0.01 Bohr mag/cell

     iteration # 25     ecut=    90.00 Ry     beta= 0.20
     Davidson diagonalization with overlap
     ethr =  8.78E-09,  avg # of iterations =  4.7

     negative rho (up, down):  3.105E-04 2.999E-04

     total cpu time spent up to now is      436.2 secs

     total energy              =    -504.62282056 Ry
     estimated scf accuracy    <       0.00000208 Ry

     total magnetization       =    -0.00 Bohr mag/cell
     absolute magnetization    =     0.01 Bohr mag/cell

     iteration # 26     ecut=    90.00 Ry     beta= 0.20
     Davidson diagonalization with overlap
     ethr =  6.93E-09,  avg # of iterations =  1.5

     negative rho (up, down):  3.136E-04 3.026E-04

     total cpu time spent up to now is      443.2 secs

     total energy              =    -504.62282057 Ry
     estimated scf accuracy    <       0.00000166 Ry

     total magnetization       =    -0.00 Bohr mag/cell
     absolute magnetization    =     0.01 Bohr mag/cell

     iteration # 27     ecut=    90.00 Ry     beta= 0.20
     Davidson diagonalization with overlap
     ethr =  5.55E-09,  avg # of iterations =  2.0

     negative rho (up, down):  3.134E-04 3.022E-04

     total cpu time spent up to now is      450.9 secs

     total energy              =    -504.62282102 Ry
     estimated scf accuracy    <       0.00000004 Ry

     total magnetization       =    -0.00 Bohr mag/cell
     absolute magnetization    =     0.01 Bohr mag/cell

     iteration # 28     ecut=    90.00 Ry     beta= 0.20
     Davidson diagonalization with overlap
     ethr =  1.25E-10,  avg # of iterations =  4.7

     negative rho (up, down):  3.136E-04 3.021E-04

     total cpu time spent up to now is      461.9 secs

     total energy              =    -504.62282126 Ry
     estimated scf accuracy    <       0.00000002 Ry

     total magnetization       =    -0.00 Bohr mag/cell
     absolute magnetization    =     0.01 Bohr mag/cell

     iteration # 29     ecut=    90.00 Ry     beta= 0.20
     Davidson diagonalization with overlap
     ethr =  8.19E-11,  avg # of iterations =  3.3

     negative rho (up, down):  3.135E-04 3.017E-04

     total cpu time spent up to now is      470.9 secs

     total energy              =    -504.62282140 Ry
     estimated scf accuracy    <       0.00000002 Ry

     total magnetization       =    -0.00 Bohr mag/cell
     absolute magnetization    =     0.01 Bohr mag/cell

     iteration # 30     ecut=    90.00 Ry     beta= 0.20
     Davidson diagonalization with overlap
     ethr =  7.51E-11,  avg # of iterations =  1.2

     negative rho (up, down):  3.135E-04 3.013E-04

     total cpu time spent up to now is      477.5 secs

     total energy              =    -504.62282149 Ry
     estimated scf accuracy    <       0.00000001 Ry

     total magnetization       =    -0.00 Bohr mag/cell
     absolute magnetization    =     0.01 Bohr mag/cell

     iteration # 31     ecut=    90.00 Ry     beta= 0.20
     Davidson diagonalization with overlap
     ethr =  4.42E-11,  avg # of iterations =  2.0

     negative rho (up, down):  3.139E-04 3.009E-04

     Magnetic moment per site:
     atom:    1    charge:   12.7767    magn:    0.0045    constr:    0.0000
     atom:    2    charge:   10.4426    magn:   -0.0047    constr:    0.0000

     total cpu time spent up to now is      485.0 secs

     End of self-consistent calculation

     Number of k-points >= 100: set verbosity='high' to print the bands.

     the Fermi energy is    17.3706 ev

!    total energy              =    -504.62282164 Ry
     estimated scf accuracy    <          7.1E-09 Ry
     smearing contrib. (-TS)   =      -0.00163894 Ry
     internal energy E=F+TS    =    -504.62118270 Ry

     The total energy is F=E-TS. E is the sum of the following terms:
     one-electron contribution =    -191.33222453 Ry
     hartree contribution      =     112.44038107 Ry
     xc contribution           =     -57.18261605 Ry
     ewald contribution        =    -292.39678291 Ry
     one-center paw contrib.   =     -76.14994027 Ry

     total magnetization       =    -0.00 Bohr mag/cell
     absolute magnetization    =     0.01 Bohr mag/cell

     convergence has been achieved in  31 iterations

     negative rho (up, down):  3.139E-04 3.009E-04

     Forces acting on atoms (cartesian axes, Ry/au):

     atom    1 type  1   force =     0.00000007   -0.00000008   -0.00000005
     atom    2 type  2   force =    -0.00000007    0.00000008    0.00000005

     Total force =     0.000000     Total SCF correction =     0.000001
     SCF correction compared to forces is large: reduce conv_thr to get better values


     Computing stress (Cartesian axis) and pressure


     negative rho (up, down):  3.139E-04 3.009E-04
          total   stress  (Ry/bohr**3)                   (kbar)     P=      -51.73
  -0.00035168   0.00000000  -0.00000001          -51.73        0.00       -0.00
   0.00000000  -0.00035168   0.00000000            0.00      -51.73        0.00
  -0.00000001   0.00000000  -0.00035168           -0.00        0.00      -51.73

     Energy error            =      1.0E+00
     Gradient error          =      7.6E-08
     Cell gradient error     =      3.5E-04


     number of scf cycles    =   2
     number of bfgs steps    =   1

     enthalpy old            =    -503.6120360225 Ry
     enthalpy new            =    -504.6228216372 Ry

     CASE: enthalpy_new < enthalpy_old

     new trust radius        =       0.0070740715 bohr
     new conv_thr            =            1.0E-10 Ry

     new unit-cell volume =    166.51938 a.u.^3 (    24.67563 Ang^3 )
     density =      7.25714 g/cm^3

CELL_PARAMETERS (alat=  6.84620477)
  -0.637815583   0.000000102   0.637815701
  -0.000000097   0.637815480   0.637815706
  -0.637815436   0.637815328   0.000000250

ATOMIC_POSITIONS (alat)
Fe            0.6378155235        0.6378155192        0.6378154707
Cr           -0.0000001600       -0.0000000140        0.0000001132



     Writing output data file ./pwscf.save/
     NEW-OLD atomic charge density approx. for the potential

     Check: negative core charge=   -0.000016

     negative rho (up, down):  3.193E-04 3.064E-04
     extrapolated charge   29.76122, renormalised to   30.00000
     Generating pointlists ...

     total cpu time spent up to now is      489.5 secs

     Self-consistent Calculation

     iteration #  1     ecut=    90.00 Ry     beta= 0.20
     Davidson diagonalization with overlap
     c_bands:  1 eigenvalues not converged
     c_bands:  1 eigenvalues not converged
     c_bands:  1 eigenvalues not converged
     c_bands:  1 eigenvalues not converged
     c_bands:  1 eigenvalues not converged
     c_bands:  1 eigenvalues not converged
     ethr =  1.00E-06,  avg # of iterations =  7.9

     negative rho (up, down):  3.559E-04 3.430E-04

     total cpu time spent up to now is      509.6 secs

     total energy              =    -504.49064757 Ry
     estimated scf accuracy    <       0.31046364 Ry

     total magnetization       =    -0.00 Bohr mag/cell
     absolute magnetization    =     0.01 Bohr mag/cell

     iteration #  2     ecut=    90.00 Ry     beta= 0.20
     Davidson diagonalization with overlap
     ethr =  1.03E-03,  avg # of iterations =  2.8

     negative rho (up, down):  2.605E-04 2.476E-04

     total cpu time spent up to now is      518.1 secs

     total energy              =    -504.45587809 Ry
     estimated scf accuracy    <       7.32794270 Ry

     total magnetization       =     0.00 Bohr mag/cell
     absolute magnetization    =     0.01 Bohr mag/cell

     iteration #  3     ecut=    90.00 Ry     beta= 0.20
     Davidson diagonalization with overlap
     ethr =  1.03E-03,  avg # of iterations =  1.9

     negative rho (up, down):  2.852E-04 2.720E-04

     total cpu time spent up to now is      525.5 secs

     total energy              =    -504.62313181 Ry
     estimated scf accuracy    <       0.12969959 Ry

     total magnetization       =    -0.00 Bohr mag/cell
     absolute magnetization    =     0.01 Bohr mag/cell

     iteration #  4     ecut=    90.00 Ry     beta= 0.20
     Davidson diagonalization with overlap
     ethr =  4.32E-04,  avg # of iterations =  1.1

     negative rho (up, down):  3.008E-04 2.874E-04

     total cpu time spent up to now is      532.2 secs

     total energy              =    -504.62335194 Ry
     estimated scf accuracy    <       0.03733182 Ry

     total magnetization       =    -0.00 Bohr mag/cell
     absolute magnetization    =     0.01 Bohr mag/cell

     iteration #  5     ecut=    90.00 Ry     beta= 0.20
     Davidson diagonalization with overlap
     ethr =  1.24E-04,  avg # of iterations =  1.4

     negative rho (up, down):  3.085E-04 2.950E-04

     total cpu time spent up to now is      539.2 secs

     total energy              =    -504.62349668 Ry
     estimated scf accuracy    <       0.01382099 Ry

     total magnetization       =    -0.00 Bohr mag/cell
     absolute magnetization    =     0.01 Bohr mag/cell

     iteration #  6     ecut=    90.00 Ry     beta= 0.20
     Davidson diagonalization with overlap
     ethr =  4.61E-05,  avg # of iterations =  1.1

     negative rho (up, down):  3.112E-04 2.975E-04

     total cpu time spent up to now is      545.9 secs

     total energy              =    -504.62346493 Ry
     estimated scf accuracy    <       0.00776757 Ry

     total magnetization       =    -0.00 Bohr mag/cell
     absolute magnetization    =     0.01 Bohr mag/cell

     iteration #  7     ecut=    90.00 Ry     beta= 0.20
     Davidson diagonalization with overlap
     ethr =  2.59E-05,  avg # of iterations =  1.1

     negative rho (up, down):  3.127E-04 2.989E-04

     total cpu time spent up to now is      552.7 secs

     total energy              =    -504.62345681 Ry
     estimated scf accuracy    <       0.00479614 Ry

     total magnetization       =    -0.00 Bohr mag/cell
     absolute magnetization    =     0.01 Bohr mag/cell

     iteration #  8     ecut=    90.00 Ry     beta= 0.20
     Davidson diagonalization with overlap
     ethr =  1.60E-05,  avg # of iterations =  1.1

     negative rho (up, down):  3.182E-04 3.040E-04

     total cpu time spent up to now is      559.4 secs

     total energy              =    -504.62321103 Ry
     estimated scf accuracy    <       0.00373910 Ry

     total magnetization       =    -0.00 Bohr mag/cell
     absolute magnetization    =     0.01 Bohr mag/cell

     iteration #  9     ecut=    90.00 Ry     beta= 0.20
     Davidson diagonalization with overlap
     ethr =  1.25E-05,  avg # of iterations =  1.1

     negative rho (up, down):  3.272E-04 3.125E-04

     total cpu time spent up to now is      566.2 secs

     total energy              =    -504.62307228 Ry
     estimated scf accuracy    <       0.00113793 Ry

     total magnetization       =    -0.00 Bohr mag/cell
     absolute magnetization    =     0.01 Bohr mag/cell

     iteration # 10     ecut=    90.00 Ry     beta= 0.20
     Davidson diagonalization with overlap
     ethr =  3.79E-06,  avg # of iterations =  2.2

     negative rho (up, down):  3.245E-04 3.099E-04

     total cpu time spent up to now is      574.3 secs

     total energy              =    -504.62321370 Ry
     estimated scf accuracy    <       0.00011459 Ry

     total magnetization       =    -0.00 Bohr mag/cell
     absolute magnetization    =     0.01 Bohr mag/cell

     iteration # 11     ecut=    90.00 Ry     beta= 0.20
     Davidson diagonalization with overlap
     ethr =  3.82E-07,  avg # of iterations =  2.5

     negative rho (up, down):  3.243E-04 3.097E-04

     total cpu time spent up to now is      582.2 secs

     total energy              =    -504.62322744 Ry
     estimated scf accuracy    <       0.00000734 Ry

     total magnetization       =    -0.00 Bohr mag/cell
     absolute magnetization    =     0.01 Bohr mag/cell

     iteration # 12     ecut=    90.00 Ry     beta= 0.20
     Davidson diagonalization with overlap
     ethr =  2.45E-08,  avg # of iterations =  4.5

     negative rho (up, down):  3.239E-04 3.093E-04

     total cpu time spent up to now is      592.8 secs

     total energy              =    -504.62323145 Ry
     estimated scf accuracy    <       0.00000274 Ry

     total magnetization       =    -0.00 Bohr mag/cell
     absolute magnetization    =     0.01 Bohr mag/cell

     iteration # 13     ecut=    90.00 Ry     beta= 0.20
     Davidson diagonalization with overlap
     ethr =  9.14E-09,  avg # of iterations =  2.2

     negative rho (up, down):  3.239E-04 3.091E-04

     total cpu time spent up to now is      600.4 secs

     total energy              =    -504.62322879 Ry
     estimated scf accuracy    <       0.00000656 Ry

     total magnetization       =    -0.00 Bohr mag/cell
     absolute magnetization    =     0.01 Bohr mag/cell

     iteration # 14     ecut=    90.00 Ry     beta= 0.20
     Davidson diagonalization with overlap
     ethr =  9.14E-09,  avg # of iterations =  2.3

     negative rho (up, down):  3.243E-04 3.090E-04

     total cpu time spent up to now is      608.8 secs

     total energy              =    -504.62323041 Ry
     estimated scf accuracy    <       0.00000493 Ry

     total magnetization       =    -0.00 Bohr mag/cell
     absolute magnetization    =     0.01 Bohr mag/cell

     iteration # 15     ecut=    90.00 Ry     beta= 0.20
     Davidson diagonalization with overlap
     ethr =  9.14E-09,  avg # of iterations =  1.0

     negative rho (up, down):  3.249E-04 3.092E-04

     total cpu time spent up to now is      615.6 secs

     total energy              =    -504.62323052 Ry
     estimated scf accuracy    <       0.00000497 Ry

     total magnetization       =    -0.00 Bohr mag/cell
     absolute magnetization    =     0.01 Bohr mag/cell

     iteration # 16     ecut=    90.00 Ry     beta= 0.20
     Davidson diagonalization with overlap
     ethr =  9.14E-09,  avg # of iterations =  2.0

     negative rho (up, down):  3.255E-04 3.094E-04

     total cpu time spent up to now is      623.3 secs

     total energy              =    -504.62323098 Ry
     estimated scf accuracy    <       0.00000147 Ry

     total magnetization       =    -0.00 Bohr mag/cell
     absolute magnetization    =     0.01 Bohr mag/cell

     iteration # 17     ecut=    90.00 Ry     beta= 0.20
     Davidson diagonalization with overlap
     ethr =  4.90E-09,  avg # of iterations =  1.0

     negative rho (up, down):  3.257E-04 3.094E-04

     total cpu time spent up to now is      630.0 secs

     total energy              =    -504.62323105 Ry
     estimated scf accuracy    <       0.00000223 Ry

     total magnetization       =    -0.00 Bohr mag/cell
     absolute magnetization    =     0.02 Bohr mag/cell

     iteration # 18     ecut=    90.00 Ry     beta= 0.20
     Davidson diagonalization with overlap
     ethr =  4.90E-09,  avg # of iterations =  1.0

     negative rho (up, down):  3.278E-04 3.090E-04

     total cpu time spent up to now is      636.8 secs

     total energy              =    -504.62323063 Ry
     estimated scf accuracy    <       0.00000211 Ry

     total magnetization       =    -0.00 Bohr mag/cell
     absolute magnetization    =     0.02 Bohr mag/cell

     iteration # 19     ecut=    90.00 Ry     beta= 0.20
     Davidson diagonalization with overlap
     ethr =  4.90E-09,  avg # of iterations =  2.0

     negative rho (up, down):  3.264E-04 3.081E-04

     total cpu time spent up to now is      644.5 secs

     total energy              =    -504.62323062 Ry
     estimated scf accuracy    <       0.00000054 Ry

     total magnetization       =    -0.00 Bohr mag/cell
     absolute magnetization    =     0.02 Bohr mag/cell

     iteration # 20     ecut=    90.00 Ry     beta= 0.20
     Davidson diagonalization with overlap
     ethr =  1.81E-09,  avg # of iterations =  2.1

     negative rho (up, down):  3.269E-04 3.087E-04

     total cpu time spent up to now is      652.9 secs

     total energy              =    -504.62323073 Ry
     estimated scf accuracy    <       0.00000007 Ry

     total magnetization       =    -0.00 Bohr mag/cell
     absolute magnetization    =     0.02 Bohr mag/cell

     iteration # 21     ecut=    90.00 Ry     beta= 0.20
     Davidson diagonalization with overlap
     ethr =  2.48E-10,  avg # of iterations =  2.4

     negative rho (up, down):  3.278E-04 3.072E-04

     total cpu time spent up to now is      662.5 secs

     total energy              =    -504.62323073 Ry
     estimated scf accuracy    <       0.00000012 Ry

     total magnetization       =    -0.00 Bohr mag/cell
     absolute magnetization    =     0.02 Bohr mag/cell

     iteration # 22     ecut=    90.00 Ry     beta= 0.20
     Davidson diagonalization with overlap
     ethr =  2.48E-10,  avg # of iterations =  2.8

     negative rho (up, down):  3.270E-04 3.088E-04

     total cpu time spent up to now is      671.4 secs

     total energy              =    -504.62323072 Ry
     estimated scf accuracy    <       0.00000005 Ry

     total magnetization       =    -0.00 Bohr mag/cell
     absolute magnetization    =     0.02 Bohr mag/cell

     iteration # 23     ecut=    90.00 Ry     beta= 0.20
     Davidson diagonalization with overlap
     ethr =  1.58E-10,  avg # of iterations =  2.9

     negative rho (up, down):  3.279E-04 3.064E-04

     total cpu time spent up to now is      680.4 secs

     total energy              =    -504.62323075 Ry
     estimated scf accuracy    <       0.00000017 Ry

     total magnetization       =    -0.00 Bohr mag/cell
     absolute magnetization    =     0.02 Bohr mag/cell

     iteration # 24     ecut=    90.00 Ry     beta= 0.20
     Davidson diagonalization with overlap
     ethr =  1.58E-10,  avg # of iterations =  5.3

     negative rho (up, down):  3.270E-04 3.078E-04

     total cpu time spent up to now is      694.1 secs

     total energy              =    -504.62323079 Ry
     estimated scf accuracy    <       0.00000043 Ry

     total magnetization       =    -0.00 Bohr mag/cell
     absolute magnetization    =     0.02 Bohr mag/cell

     iteration # 25     ecut=    90.00 Ry     beta= 0.20
     Davidson diagonalization with overlap
     ethr =  1.58E-10,  avg # of iterations =  2.3

     negative rho (up, down):  3.272E-04 3.075E-04

     total cpu time spent up to now is      702.2 secs

     total energy              =    -504.62323090 Ry
     estimated scf accuracy    <       0.00000030 Ry

     total magnetization       =    -0.00 Bohr mag/cell
     absolute magnetization    =     0.02 Bohr mag/cell

     iteration # 26     ecut=    90.00 Ry     beta= 0.20
     Davidson diagonalization with overlap
     ethr =  1.58E-10,  avg # of iterations =  2.0

     negative rho (up, down):  3.259E-04 3.100E-04

     total cpu time spent up to now is      709.7 secs

     total energy              =    -504.62323048 Ry
     estimated scf accuracy    <       0.00000040 Ry

     total magnetization       =    -0.00 Bohr mag/cell
     absolute magnetization    =     0.02 Bohr mag/cell

     iteration # 27     ecut=    90.00 Ry     beta= 0.20
     Davidson diagonalization with overlap
     ethr =  1.58E-10,  avg # of iterations =  6.1

     negative rho (up, down):  3.269E-04 3.076E-04

     total cpu time spent up to now is      725.1 secs

     total energy              =    -504.62323059 Ry
     estimated scf accuracy    <       0.00000071 Ry

     total magnetization       =    -0.00 Bohr mag/cell
     absolute magnetization    =     0.01 Bohr mag/cell

     iteration # 28     ecut=    90.00 Ry     beta= 0.20
     Davidson diagonalization with overlap
     ethr =  1.58E-10,  avg # of iterations =  4.9

     negative rho (up, down):  3.272E-04 3.073E-04

     total cpu time spent up to now is      737.4 secs

     total energy              =    -504.62323084 Ry
     estimated scf accuracy    <       0.00000006 Ry

     total magnetization       =    -0.00 Bohr mag/cell
     absolute magnetization    =     0.02 Bohr mag/cell

     iteration # 29     ecut=    90.00 Ry     beta= 0.20
     Davidson diagonalization with overlap
     ethr =  1.58E-10,  avg # of iterations =  2.0

     negative rho (up, down):  3.263E-04 3.081E-04

     total cpu time spent up to now is      745.6 secs

     total energy              =    -504.62323079 Ry
     estimated scf accuracy    <       0.00000019 Ry

     total magnetization       =    -0.00 Bohr mag/cell
     absolute magnetization    =     0.02 Bohr mag/cell

     iteration # 30     ecut=    90.00 Ry     beta= 0.20
     Davidson diagonalization with overlap
     ethr =  1.58E-10,  avg # of iterations =  1.6

     negative rho (up, down):  3.252E-04 3.087E-04

     total cpu time spent up to now is      752.8 secs

     total energy              =    -504.62323069 Ry
     estimated scf accuracy    <       0.00000017 Ry

     total magnetization       =    -0.00 Bohr mag/cell
     absolute magnetization    =     0.02 Bohr mag/cell

     iteration # 31     ecut=    90.00 Ry     beta= 0.20
     Davidson diagonalization with overlap
     ethr =  1.58E-10,  avg # of iterations =  2.6

     negative rho (up, down):  3.245E-04 3.091E-04

     total cpu time spent up to now is      761.7 secs

     total energy              =    -504.62323070 Ry
     estimated scf accuracy    <       0.00000002 Ry

     total magnetization       =    -0.00 Bohr mag/cell
     absolute magnetization    =     0.02 Bohr mag/cell

     iteration # 32     ecut=    90.00 Ry     beta= 0.20
     Davidson diagonalization with overlap
     ethr =  6.59E-11,  avg # of iterations =  2.7

     negative rho (up, down):  3.203E-04 3.130E-04

     total cpu time spent up to now is      770.2 secs

     total energy              =    -504.62323005 Ry
     estimated scf accuracy    <       0.00000002 Ry

     total magnetization       =    -0.00 Bohr mag/cell
     absolute magnetization    =     0.01 Bohr mag/cell

     iteration # 33     ecut=    90.00 Ry     beta= 0.20
     Davidson diagonalization with overlap
     ethr =  5.45E-11,  avg # of iterations =  6.0

     negative rho (up, down):  3.190E-04 3.143E-04

     total cpu time spent up to now is      783.9 secs

     total energy              =    -504.62323054 Ry
     estimated scf accuracy    <       0.00000004 Ry

     total magnetization       =    -0.00 Bohr mag/cell
     absolute magnetization    =     0.01 Bohr mag/cell

     iteration # 34     ecut=    90.00 Ry     beta= 0.20
     Davidson diagonalization with overlap
     ethr =  5.45E-11,  avg # of iterations =  3.7

     negative rho (up, down):  3.179E-04 3.156E-04

     total cpu time spent up to now is      793.7 secs

     total energy              =    -504.62323055 Ry
     estimated scf accuracy    <          3.3E-09 Ry

     total magnetization       =    -0.00 Bohr mag/cell
     absolute magnetization    =     0.00 Bohr mag/cell

     iteration # 35     ecut=    90.00 Ry     beta= 0.20
     Davidson diagonalization with overlap
     ethr =  1.10E-11,  avg # of iterations =  5.8

     negative rho (up, down):  3.173E-04 3.163E-04

     total cpu time spent up to now is      808.1 secs

     total energy              =    -504.62323058 Ry
     estimated scf accuracy    <          4.4E-09 Ry

     total magnetization       =    -0.00 Bohr mag/cell
     absolute magnetization    =     0.00 Bohr mag/cell

     iteration # 36     ecut=    90.00 Ry     beta= 0.20
     Davidson diagonalization with overlap
     ethr =  1.10E-11,  avg # of iterations =  4.0

     negative rho (up, down):  3.167E-04 3.169E-04

     total cpu time spent up to now is      818.1 secs

     total energy              =    -504.62323059 Ry
     estimated scf accuracy    <          4.0E-10 Ry

     total magnetization       =    -0.00 Bohr mag/cell
     absolute magnetization    =     0.00 Bohr mag/cell

     iteration # 37     ecut=    90.00 Ry     beta= 0.20
     Davidson diagonalization with overlap
     ethr =  1.34E-12,  avg # of iterations =  6.2

     negative rho (up, down):  3.167E-04 3.169E-04

     total cpu time spent up to now is      832.2 secs

     total energy              =    -504.62323060 Ry
     estimated scf accuracy    <          1.0E-10 Ry

     total magnetization       =    -0.00 Bohr mag/cell
     absolute magnetization    =     0.00 Bohr mag/cell

     iteration # 38     ecut=    90.00 Ry     beta= 0.20
     Davidson diagonalization with overlap
     ethr =  3.38E-13,  avg # of iterations =  2.2

     negative rho (up, down):  3.166E-04 3.168E-04

     Magnetic moment per site:
     atom:    1    charge:   12.7798    magn:   -0.0001    constr:    0.0000
     atom:    2    charge:   10.4454    magn:    0.0001    constr:    0.0000

     total cpu time spent up to now is      840.1 secs

     End of self-consistent calculation

     Number of k-points >= 100: set verbosity='high' to print the bands.

     the Fermi energy is    17.5467 ev

!    total energy              =    -504.62323061 Ry
     estimated scf accuracy    <          3.6E-11 Ry
     smearing contrib. (-TS)   =      -0.00162873 Ry
     internal energy E=F+TS    =    -504.62160187 Ry

     The total energy is F=E-TS. E is the sum of the following terms:
     one-electron contribution =    -190.08024584 Ry
     hartree contribution      =     112.00273669 Ry
     xc contribution           =     -57.19690291 Ry
     ewald contribution        =    -293.19711377 Ry
     one-center paw contrib.   =     -76.15007604 Ry

     total magnetization       =    -0.00 Bohr mag/cell
     absolute magnetization    =     0.00 Bohr mag/cell

     convergence has been achieved in  38 iterations

     negative rho (up, down):  3.166E-04 3.168E-04

     Forces acting on atoms (cartesian axes, Ry/au):

     atom    1 type  1   force =     0.00000002   -0.00000002   -0.00000003
     atom    2 type  2   force =    -0.00000002    0.00000002    0.00000003

     Total force =     0.000000     Total SCF correction =     0.000000
     SCF correction compared to forces is large: reduce conv_thr to get better values


     Computing stress (Cartesian axis) and pressure


     negative rho (up, down):  3.166E-04 3.168E-04
          total   stress  (Ry/bohr**3)                   (kbar)     P=      -35.84
  -0.00024365   0.00000000  -0.00000000          -35.84        0.00       -0.00
   0.00000000  -0.00024364  -0.00000001            0.00      -35.84       -0.00
  -0.00000000  -0.00000001  -0.00024365           -0.00       -0.00      -35.84

     Energy error            =      4.1E-04
     Gradient error          =      2.6E-08
     Cell gradient error     =      2.4E-04


     number of scf cycles    =   3
     number of bfgs steps    =   2

     enthalpy old            =    -504.6228216372 Ry
     enthalpy new            =    -504.6232306066 Ry

     CASE: enthalpy_new < enthalpy_old

     new trust radius        =       0.0105966161 bohr
     new conv_thr            =            1.0E-10 Ry

     new unit-cell volume =    164.47672 a.u.^3 (    24.37294 Ang^3 )
     density =      7.34726 g/cm^3

CELL_PARAMETERS (alat=  6.84620477)
  -0.635196973  -0.000000153   0.635197074
  -0.000000234   0.635196652   0.635196687
  -0.635196646   0.635196713   0.000000174

ATOMIC_POSITIONS (alat)
Fe            0.6351966370        0.6351967044        0.6351962747
Cr           -0.0000001785       -0.0000000061        0.0000001316



     Writing output data file ./pwscf.save/
     NEW-OLD atomic charge density approx. for the potential

     Check: negative core charge=   -0.000017

     negative rho (up, down):  3.243E-04 3.245E-04
     extrapolated charge   29.63985, renormalised to   30.00000
     Generating pointlists ...

     total cpu time spent up to now is      844.5 secs

     Self-consistent Calculation

     iteration #  1     ecut=    90.00 Ry     beta= 0.20
     Davidson diagonalization with overlap
     ethr =  1.00E-06,  avg # of iterations =  9.0

     negative rho (up, down):  3.728E-04 3.730E-04

     total cpu time spent up to now is      867.3 secs

     total energy              =    -504.33828327 Ry
     estimated scf accuracy    <       0.66164647 Ry

     total magnetization       =     0.00 Bohr mag/cell
     absolute magnetization    =     0.00 Bohr mag/cell

     iteration #  2     ecut=    90.00 Ry     beta= 0.20
     Davidson diagonalization with overlap
     ethr =  2.21E-03,  avg # of iterations =  3.0

     negative rho (up, down):  2.378E-04 2.380E-04

     total cpu time spent up to now is      875.9 secs

     total energy              =    -504.37743816 Ry
     estimated scf accuracy    <      11.14990909 Ry

     total magnetization       =    -0.00 Bohr mag/cell
     absolute magnetization    =     0.00 Bohr mag/cell

     iteration #  3     ecut=    90.00 Ry     beta= 0.20
     Davidson diagonalization with overlap
     ethr =  2.21E-03,  avg # of iterations =  1.8

     negative rho (up, down):  2.727E-04 2.729E-04

     total cpu time spent up to now is      883.2 secs

     total energy              =    -504.62128770 Ry
     estimated scf accuracy    <       0.34601790 Ry

     total magnetization       =    -0.00 Bohr mag/cell
     absolute magnetization    =     0.00 Bohr mag/cell

     iteration #  4     ecut=    90.00 Ry     beta= 0.20
     Davidson diagonalization with overlap
     ethr =  1.15E-03,  avg # of iterations =  1.2

     negative rho (up, down):  2.970E-04 2.972E-04

     total cpu time spent up to now is      890.0 secs

     total energy              =    -504.62382374 Ry
     estimated scf accuracy    <       0.07273848 Ry

     total magnetization       =     0.00 Bohr mag/cell
     absolute magnetization    =     0.00 Bohr mag/cell

     iteration #  5     ecut=    90.00 Ry     beta= 0.20
     Davidson diagonalization with overlap
     ethr =  2.42E-04,  avg # of iterations =  1.6

     negative rho (up, down):  3.068E-04 3.070E-04

     total cpu time spent up to now is      897.1 secs

     total energy              =    -504.62440974 Ry
     estimated scf accuracy    <       0.02926723 Ry

     total magnetization       =     0.00 Bohr mag/cell
     absolute magnetization    =     0.00 Bohr mag/cell

     iteration #  6     ecut=    90.00 Ry     beta= 0.20
     Davidson diagonalization with overlap
     ethr =  9.76E-05,  avg # of iterations =  1.1

     negative rho (up, down):  3.084E-04 3.086E-04

     total cpu time spent up to now is      903.8 secs

     total energy              =    -504.62433514 Ry
     estimated scf accuracy    <       0.01766280 Ry

     total magnetization       =     0.00 Bohr mag/cell
     absolute magnetization    =     0.00 Bohr mag/cell

     iteration #  7     ecut=    90.00 Ry     beta= 0.20
     Davidson diagonalization with overlap
     ethr =  5.89E-05,  avg # of iterations =  1.0

     negative rho (up, down):  3.069E-04 3.071E-04

     total cpu time spent up to now is      910.5 secs

     total energy              =    -504.62458233 Ry
     estimated scf accuracy    <       0.01126588 Ry

     total magnetization       =     0.00 Bohr mag/cell
     absolute magnetization    =     0.00 Bohr mag/cell

     iteration #  8     ecut=    90.00 Ry     beta= 0.20
     Davidson diagonalization with overlap
     ethr =  3.76E-05,  avg # of iterations =  1.0

     negative rho (up, down):  3.115E-04 3.117E-04

     total cpu time spent up to now is      917.2 secs

     total energy              =    -504.62426835 Ry
     estimated scf accuracy    <       0.01199696 Ry

     total magnetization       =     0.00 Bohr mag/cell
     absolute magnetization    =     0.00 Bohr mag/cell

     iteration #  9     ecut=    90.00 Ry     beta= 0.20
     Davidson diagonalization with overlap
     ethr =  3.76E-05,  avg # of iterations =  1.0

     negative rho (up, down):  3.368E-04 3.370E-04

     total cpu time spent up to now is      923.9 secs

     total energy              =    -504.62270445 Ry
     estimated scf accuracy    <       0.00875677 Ry

     total magnetization       =     0.00 Bohr mag/cell
     absolute magnetization    =     0.00 Bohr mag/cell

     iteration # 10     ecut=    90.00 Ry     beta= 0.20
     Davidson diagonalization with overlap
     ethr =  2.92E-05,  avg # of iterations =  2.0

     negative rho (up, down):  3.358E-04 3.360E-04

     total cpu time spent up to now is      931.6 secs

     total energy              =    -504.62350977 Ry
     estimated scf accuracy    <       0.00001880 Ry

     total magnetization       =     0.00 Bohr mag/cell
     absolute magnetization    =     0.00 Bohr mag/cell

     iteration # 11     ecut=    90.00 Ry     beta= 0.20
     Davidson diagonalization with overlap
     ethr =  6.27E-08,  avg # of iterations =  6.7

     negative rho (up, down):  3.343E-04 3.345E-04

     total cpu time spent up to now is      948.1 secs

     total energy              =    -504.62355354 Ry
     estimated scf accuracy    <       0.00010639 Ry

     total magnetization       =     0.00 Bohr mag/cell
     absolute magnetization    =     0.00 Bohr mag/cell

     iteration # 12     ecut=    90.00 Ry     beta= 0.20
     Davidson diagonalization with overlap
     ethr =  6.27E-08,  avg # of iterations =  2.0

     negative rho (up, down):  3.406E-04 3.408E-04

     total cpu time spent up to now is      956.0 secs

     total energy              =    -504.62358040 Ry
     estimated scf accuracy    <       0.00002183 Ry

     total magnetization       =     0.00 Bohr mag/cell
     absolute magnetization    =     0.00 Bohr mag/cell

     iteration # 13     ecut=    90.00 Ry     beta= 0.20
     Davidson diagonalization with overlap
     ethr =  6.27E-08,  avg # of iterations =  3.3

     negative rho (up, down):  3.203E-04 3.206E-04

     total cpu time spent up to now is      965.6 secs

     total energy              =    -504.62348966 Ry
     estimated scf accuracy    <       0.00013497 Ry

     total magnetization       =     0.00 Bohr mag/cell
     absolute magnetization    =     0.00 Bohr mag/cell

     iteration # 14     ecut=    90.00 Ry     beta= 0.20
     Davidson diagonalization with overlap
     ethr =  6.27E-08,  avg # of iterations =  5.9

     negative rho (up, down):  3.238E-04 3.241E-04

     total cpu time spent up to now is      980.4 secs

     total energy              =    -504.62356518 Ry
     estimated scf accuracy    <       0.00019560 Ry

     total magnetization       =     0.00 Bohr mag/cell
     absolute magnetization    =     0.00 Bohr mag/cell

     iteration # 15     ecut=    90.00 Ry     beta= 0.20
     Davidson diagonalization with overlap
     ethr =  6.27E-08,  avg # of iterations =  2.9

     negative rho (up, down):  3.270E-04 3.273E-04

     total cpu time spent up to now is      989.0 secs

     total energy              =    -504.62355562 Ry
     estimated scf accuracy    <       0.00007121 Ry

     total magnetization       =     0.00 Bohr mag/cell
     absolute magnetization    =     0.00 Bohr mag/cell

     iteration # 16     ecut=    90.00 Ry     beta= 0.20
     Davidson diagonalization with overlap
     ethr =  6.27E-08,  avg # of iterations =  2.1

     negative rho (up, down):  3.283E-04 3.285E-04

     total cpu time spent up to now is      997.4 secs

     total energy              =    -504.62355447 Ry
     estimated scf accuracy    <       0.00002234 Ry

     total magnetization       =     0.00 Bohr mag/cell
     absolute magnetization    =     0.00 Bohr mag/cell

     iteration # 17     ecut=    90.00 Ry     beta= 0.20
     Davidson diagonalization with overlap
     ethr =  6.27E-08,  avg # of iterations =  2.0

     negative rho (up, down):  3.308E-04 3.311E-04

     total cpu time spent up to now is     1005.0 secs

     total energy              =    -504.62355199 Ry
     estimated scf accuracy    <       0.00000667 Ry

     total magnetization       =     0.00 Bohr mag/cell
     absolute magnetization    =     0.00 Bohr mag/cell

     iteration # 18     ecut=    90.00 Ry     beta= 0.20
     Davidson diagonalization with overlap
     ethr =  2.22E-08,  avg # of iterations =  3.8

     negative rho (up, down):  3.308E-04 3.311E-04

     total cpu time spent up to now is     1015.5 secs

     total energy              =    -504.62355558 Ry
     estimated scf accuracy    <       0.00000188 Ry

     total magnetization       =     0.00 Bohr mag/cell
     absolute magnetization    =     0.00 Bohr mag/cell

     iteration # 19     ecut=    90.00 Ry     beta= 0.20
     Davidson diagonalization with overlap
     ethr =  6.27E-09,  avg # of iterations =  2.0

     negative rho (up, down):  3.296E-04 3.299E-04

     total cpu time spent up to now is     1022.8 secs

     total energy              =    -504.62355459 Ry
     estimated scf accuracy    <       0.00000230 Ry

     total magnetization       =     0.00 Bohr mag/cell
     absolute magnetization    =     0.00 Bohr mag/cell

     iteration # 20     ecut=    90.00 Ry     beta= 0.20
     Davidson diagonalization with overlap
     ethr =  6.27E-09,  avg # of iterations =  2.6

     negative rho (up, down):  3.287E-04 3.289E-04

     total cpu time spent up to now is     1031.2 secs

     total energy              =    -504.62355524 Ry
     estimated scf accuracy    <          9.7E-09 Ry

     total magnetization       =     0.00 Bohr mag/cell
     absolute magnetization    =     0.00 Bohr mag/cell

     iteration # 21     ecut=    90.00 Ry     beta= 0.20
     Davidson diagonalization with overlap
     ethr =  3.23E-11,  avg # of iterations =  7.8

     negative rho (up, down):  3.294E-04 3.297E-04

     total cpu time spent up to now is     1049.8 secs

     total energy              =    -504.62355514 Ry
     estimated scf accuracy    <       0.00000153 Ry

     total magnetization       =     0.00 Bohr mag/cell
     absolute magnetization    =     0.00 Bohr mag/cell

     iteration # 22     ecut=    90.00 Ry     beta= 0.20
     Davidson diagonalization with overlap
     ethr =  3.23E-11,  avg # of iterations =  6.2

     negative rho (up, down):  3.303E-04 3.306E-04

     total cpu time spent up to now is     1065.3 secs

     total energy              =    -504.62355501 Ry
     estimated scf accuracy    <       0.00000036 Ry

     total magnetization       =     0.00 Bohr mag/cell
     absolute magnetization    =     0.00 Bohr mag/cell

     iteration # 23     ecut=    90.00 Ry     beta= 0.20
     Davidson diagonalization with overlap
     ethr =  3.23E-11,  avg # of iterations =  7.5

     negative rho (up, down):  3.300E-04 3.302E-04

     total cpu time spent up to now is     1083.5 secs

     total energy              =    -504.62355513 Ry
     estimated scf accuracy    <       0.00000009 Ry

     total magnetization       =     0.00 Bohr mag/cell
     absolute magnetization    =     0.00 Bohr mag/cell

     iteration # 24     ecut=    90.00 Ry     beta= 0.20
     Davidson diagonalization with overlap
     ethr =  3.23E-11,  avg # of iterations =  4.3

     negative rho (up, down):  3.300E-04 3.303E-04

     total cpu time spent up to now is     1095.0 secs

     total energy              =    -504.62355515 Ry
     estimated scf accuracy    <          3.1E-09 Ry

     total magnetization       =     0.00 Bohr mag/cell
[...]

     total energy              =    -504.34546577 Ry
     estimated scf accuracy    <      11.62432537 Ry

     total magnetization       =    -0.00 Bohr mag/cell
     absolute magnetization    =     0.00 Bohr mag/cell

     iteration #  3     ecut=    90.00 Ry     beta= 0.20
     Davidson diagonalization with overlap
     ethr =  1.00E-02,  avg # of iterations =  1.8

     negative rho (up, down):  8.924E-04 8.928E-04

     total cpu time spent up to now is     1635.0 secs

     total energy              =    -503.78147657 Ry
     estimated scf accuracy    <       1.86971389 Ry

     total magnetization       =     0.00 Bohr mag/cell
     absolute magnetization    =     0.00 Bohr mag/cell

     iteration #  4     ecut=    90.00 Ry     beta= 0.20
     Davidson diagonalization with overlap
     ethr =  6.23E-03,  avg # of iterations =  3.9

     negative rho (up, down):  4.592E-04 4.592E-04

     total cpu time spent up to now is     1652.5 secs

     total energy              =    -502.77491209 Ry
     estimated scf accuracy    <      27.41834102 Ry

     total magnetization       =     0.00 Bohr mag/cell
     absolute magnetization    =     0.00 Bohr mag/cell

     iteration #  5     ecut=    90.00 Ry     beta= 0.20
     Davidson diagonalization with overlap
     ethr =  6.23E-03,  avg # of iterations =  3.0

     negative rho (up, down):  4.546E-04 4.546E-04

     total cpu time spent up to now is     1667.1 secs

     total energy              =    -504.71089419 Ry
     estimated scf accuracy    <       1.38556742 Ry

     total magnetization       =     0.00 Bohr mag/cell
     absolute magnetization    =     0.00 Bohr mag/cell

     iteration #  6     ecut=    90.00 Ry     beta= 0.20
     Davidson diagonalization with overlap
     ethr =  4.62E-03,  avg # of iterations =  1.0

     negative rho (up, down):  4.558E-04 4.558E-04

     total cpu time spent up to now is     1678.1 secs

     total energy              =    -504.71212970 Ry
     estimated scf accuracy    <       1.24695845 Ry

     total magnetization       =     0.00 Bohr mag/cell
     absolute magnetization    =     0.00 Bohr mag/cell

     iteration #  7     ecut=    90.00 Ry     beta= 0.20
     Davidson diagonalization with overlap
     ethr =  4.16E-03,  avg # of iterations =  1.0

     negative rho (up, down):  4.654E-04 4.654E-04

     total cpu time spent up to now is     1689.5 secs

     total energy              =    -504.68608998 Ry
     estimated scf accuracy    <       1.19205039 Ry

     total magnetization       =     0.00 Bohr mag/cell
     absolute magnetization    =     0.00 Bohr mag/cell

     iteration #  8     ecut=    90.00 Ry     beta= 0.20
     Davidson diagonalization with overlap
     ethr =  3.97E-03,  avg # of iterations =  1.0

     negative rho (up, down):  5.141E-04 5.141E-04

     total cpu time spent up to now is     1701.0 secs

     total energy              =    -504.61602881 Ry
     estimated scf accuracy    <       0.88492378 Ry

     total magnetization       =    -0.00 Bohr mag/cell
     absolute magnetization    =     0.00 Bohr mag/cell

     iteration #  9     ecut=    90.00 Ry     beta= 0.20
     Davidson diagonalization with overlap
     ethr =  2.95E-03,  avg # of iterations =  1.0

     negative rho (up, down):  5.207E-04 5.207E-04

     total cpu time spent up to now is     1712.4 secs

     total energy              =    -504.63011178 Ry
     estimated scf accuracy    <       0.14485259 Ry

     total magnetization       =    -0.00 Bohr mag/cell
     absolute magnetization    =     0.00 Bohr mag/cell

     iteration # 10     ecut=    90.00 Ry     beta= 0.20
     Davidson diagonalization with overlap
     ethr =  4.83E-04,  avg # of iterations =  1.1

     negative rho (up, down):  5.257E-04 5.258E-04

     total cpu time spent up to now is     1723.9 secs

     total energy              =    -504.63281352 Ry
     estimated scf accuracy    <       0.03984751 Ry

     total magnetization       =    -0.00 Bohr mag/cell
     absolute magnetization    =     0.00 Bohr mag/cell

     iteration # 11     ecut=    90.00 Ry     beta= 0.20
     Davidson diagonalization with overlap
     ethr =  1.33E-04,  avg # of iterations =  1.2

     negative rho (up, down):  5.196E-04 5.198E-04

     total cpu time spent up to now is     1735.6 secs

     total energy              =    -504.62408994 Ry
     estimated scf accuracy    <       0.03525616 Ry

     total magnetization       =    -0.00 Bohr mag/cell
     absolute magnetization    =     0.00 Bohr mag/cell

     iteration # 12     ecut=    90.00 Ry     beta= 0.20
     Davidson diagonalization with overlap
     ethr =  1.18E-04,  avg # of iterations =  2.1

     negative rho (up, down):  5.018E-04 5.019E-04

     total cpu time spent up to now is     1748.4 secs

     total energy              =    -504.63393718 Ry
     estimated scf accuracy    <       0.22786388 Ry

     total magnetization       =    -0.00 Bohr mag/cell
     absolute magnetization    =     0.00 Bohr mag/cell

     iteration # 13     ecut=    90.00 Ry     beta= 0.20
     Davidson diagonalization with overlap
     ethr =  1.18E-04,  avg # of iterations =  1.0

     negative rho (up, down):  4.897E-04 4.899E-04

     total cpu time spent up to now is     1759.8 secs

     total energy              =    -504.63388698 Ry
     estimated scf accuracy    <       0.09258235 Ry

     total magnetization       =    -0.00 Bohr mag/cell
     absolute magnetization    =     0.00 Bohr mag/cell

     iteration # 14     ecut=    90.00 Ry     beta= 0.20
     Davidson diagonalization with overlap
     ethr =  1.18E-04,  avg # of iterations =  1.0

     negative rho (up, down):  4.739E-04 4.740E-04

     total cpu time spent up to now is     1771.3 secs

     total energy              =    -504.63024229 Ry
     estimated scf accuracy    <       0.06139409 Ry

     total magnetization       =    -0.00 Bohr mag/cell
     absolute magnetization    =     0.00 Bohr mag/cell

     iteration # 15     ecut=    90.00 Ry     beta= 0.20
     Davidson diagonalization with overlap
     ethr =  1.18E-04,  avg # of iterations =  1.0

     negative rho (up, down):  4.752E-04 4.753E-04

     total cpu time spent up to now is     1782.8 secs

     total energy              =    -504.63144094 Ry
     estimated scf accuracy    <       0.00289798 Ry

     total magnetization       =    -0.00 Bohr mag/cell
     absolute magnetization    =     0.00 Bohr mag/cell

     iteration # 16     ecut=    90.00 Ry     beta= 0.20
     Davidson diagonalization with overlap
     ethr =  9.66E-06,  avg # of iterations =  1.9

     negative rho (up, down):  4.801E-04 4.802E-04

     total cpu time spent up to now is     1795.1 secs

     total energy              =    -504.63140418 Ry
     estimated scf accuracy    <       0.00046275 Ry

     total magnetization       =    -0.00 Bohr mag/cell
     absolute magnetization    =     0.00 Bohr mag/cell

     iteration # 17     ecut=    90.00 Ry     beta= 0.20
     Davidson diagonalization with overlap
     ethr =  1.54E-06,  avg # of iterations =  4.0

     negative rho (up, down):  4.775E-04 4.776E-04

     total cpu time spent up to now is     1811.6 secs

     total energy              =    -504.63169955 Ry
     estimated scf accuracy    <       0.00377793 Ry

     total magnetization       =    -0.00 Bohr mag/cell
     absolute magnetization    =     0.00 Bohr mag/cell

     iteration # 18     ecut=    90.00 Ry     beta= 0.20
     Davidson diagonalization with overlap
     ethr =  1.54E-06,  avg # of iterations =  1.5

     negative rho (up, down):  4.772E-04 4.774E-04

     total cpu time spent up to now is     1823.2 secs

     total energy              =    -504.63168100 Ry
     estimated scf accuracy    <       0.00115405 Ry

     total magnetization       =     0.00 Bohr mag/cell
     absolute magnetization    =     0.00 Bohr mag/cell

     iteration # 19     ecut=    90.00 Ry     beta= 0.20
     Davidson diagonalization with overlap
     ethr =  1.54E-06,  avg # of iterations =  1.2

     negative rho (up, down):  4.757E-04 4.758E-04

     total cpu time spent up to now is     1834.5 secs

     total energy              =    -504.63169963 Ry
     estimated scf accuracy    <       0.00012373 Ry

     total magnetization       =     0.00 Bohr mag/cell
     absolute magnetization    =     0.00 Bohr mag/cell

     iteration # 20     ecut=    90.00 Ry     beta= 0.20
     Davidson diagonalization with overlap
     ethr =  4.12E-07,  avg # of iterations =  1.4

     negative rho (up, down):  4.756E-04 4.757E-04

     total cpu time spent up to now is     1846.0 secs

     total energy              =    -504.63169526 Ry
     estimated scf accuracy    <       0.00001610 Ry

     total magnetization       =     0.00 Bohr mag/cell
     absolute magnetization    =     0.00 Bohr mag/cell

     iteration # 21     ecut=    90.00 Ry     beta= 0.20
     Davidson diagonalization with overlap
     ethr =  5.37E-08,  avg # of iterations =  3.5

     negative rho (up, down):  4.784E-04 4.785E-04

     total cpu time spent up to now is     1859.5 secs

     total energy              =    -504.63174483 Ry
     estimated scf accuracy    <       0.00005903 Ry

     total magnetization       =     0.00 Bohr mag/cell
     absolute magnetization    =     0.00 Bohr mag/cell

     iteration # 22     ecut=    90.00 Ry     beta= 0.20
     Davidson diagonalization with overlap
     ethr =  5.37E-08,  avg # of iterations =  2.1

     negative rho (up, down):  4.785E-04 4.787E-04

     total cpu time spent up to now is     1872.4 secs

     total energy              =    -504.63174987 Ry
     estimated scf accuracy    <       0.00001585 Ry

     total magnetization       =     0.00 Bohr mag/cell
     absolute magnetization    =     0.00 Bohr mag/cell

     iteration # 23     ecut=    90.00 Ry     beta= 0.20
     Davidson diagonalization with overlap
     ethr =  5.28E-08,  avg # of iterations =  1.0

     negative rho (up, down):  4.749E-04 4.751E-04

     total cpu time spent up to now is     1883.5 secs

     total energy              =    -504.63170083 Ry
     estimated scf accuracy    <       0.00001100 Ry

     total magnetization       =     0.00 Bohr mag/cell
     absolute magnetization    =     0.00 Bohr mag/cell

     iteration # 24     ecut=    90.00 Ry     beta= 0.20
     Davidson diagonalization with overlap
     ethr =  3.67E-08,  avg # of iterations =  2.0

     negative rho (up, down):  4.751E-04 4.753E-04

     total cpu time spent up to now is     1896.8 secs

     total energy              =    -504.63170747 Ry
     estimated scf accuracy    <       0.00000112 Ry

     total magnetization       =     0.00 Bohr mag/cell
     absolute magnetization    =     0.00 Bohr mag/cell

     iteration # 25     ecut=    90.00 Ry     beta= 0.20
     Davidson diagonalization with overlap
     ethr =  3.73E-09,  avg # of iterations =  2.1

     negative rho (up, down):  4.755E-04 4.757E-04

     total cpu time spent up to now is     1910.3 secs

     total energy              =    -504.63171100 Ry
     estimated scf accuracy    <       0.00000039 Ry

     total magnetization       =     0.00 Bohr mag/cell
     absolute magnetization    =     0.00 Bohr mag/cell

     iteration # 26     ecut=    90.00 Ry     beta= 0.20
     Davidson diagonalization with overlap
     ethr =  1.29E-09,  avg # of iterations =  1.5

     negative rho (up, down):  4.755E-04 4.757E-04

     total cpu time spent up to now is     1921.9 secs

     total energy              =    -504.63171248 Ry
     estimated scf accuracy    <       0.00000002 Ry

     total magnetization       =     0.00 Bohr mag/cell
     absolute magnetization    =     0.00 Bohr mag/cell

     iteration # 27     ecut=    90.00 Ry     beta= 0.20
     Davidson diagonalization with overlap
     ethr =  5.76E-11,  avg # of iterations =  4.9

     negative rho (up, down):  4.755E-04 4.757E-04

     total cpu time spent up to now is     1940.0 secs

     total energy              =    -504.63171300 Ry
     estimated scf accuracy    <       0.00000002 Ry

     total magnetization       =     0.00 Bohr mag/cell
     absolute magnetization    =     0.00 Bohr mag/cell

     iteration # 28     ecut=    90.00 Ry     beta= 0.20
     Davidson diagonalization with overlap
     ethr =  5.76E-11,  avg # of iterations =  2.0

     negative rho (up, down):  4.756E-04 4.758E-04

     total cpu time spent up to now is     1952.9 secs

     total energy              =    -504.63171324 Ry
     estimated scf accuracy    <          3.9E-10 Ry

     total magnetization       =     0.00 Bohr mag/cell
     absolute magnetization    =     0.00 Bohr mag/cell

     iteration # 29     ecut=    90.00 Ry     beta= 0.20
     Davidson diagonalization with overlap
     ethr =  1.31E-12,  avg # of iterations =  5.4

     negative rho (up, down):  4.755E-04 4.758E-04

     total cpu time spent up to now is     1973.5 secs

     total energy              =    -504.63171292 Ry
     estimated scf accuracy    <          1.4E-09 Ry

     total magnetization       =     0.00 Bohr mag/cell
     absolute magnetization    =     0.00 Bohr mag/cell

     iteration # 30     ecut=    90.00 Ry     beta= 0.20
     Davidson diagonalization with overlap
     ethr =  1.31E-12,  avg # of iterations =  3.9

     negative rho (up, down):  4.755E-04 4.758E-04

     total cpu time spent up to now is     1991.6 secs

     total energy              =    -504.63171296 Ry
     estimated scf accuracy    <          1.3E-10 Ry

     total magnetization       =     0.00 Bohr mag/cell
     absolute magnetization    =     0.00 Bohr mag/cell

     iteration # 31     ecut=    90.00 Ry     beta= 0.20
     Davidson diagonalization with overlap
     ethr =  4.43E-13,  avg # of iterations =  2.5

     negative rho (up, down):  4.755E-04 4.758E-04

     total cpu time spent up to now is     2004.7 secs

     total energy              =    -504.63171292 Ry
     estimated scf accuracy    <          2.5E-10 Ry

     total magnetization       =     0.00 Bohr mag/cell
     absolute magnetization    =     0.00 Bohr mag/cell

     iteration # 32     ecut=    90.00 Ry     beta= 0.20
     Davidson diagonalization with overlap
     ethr =  4.43E-13,  avg # of iterations =  2.0

     negative rho (up, down):  4.755E-04 4.758E-04

     Magnetic moment per site:
     atom:    1    charge:   12.7853    magn:   -0.0002    constr:    0.0000
     atom:    2    charge:   10.4513    magn:    0.0002    constr:    0.0000

     total cpu time spent up to now is     2018.0 secs

     End of self-consistent calculation

     Number of k-points >= 100: set verbosity='high' to print the bands.

     the Fermi energy is    17.9254 ev

!    total energy              =    -504.63171287 Ry
     estimated scf accuracy    <          3.8E-11 Ry
     smearing contrib. (-TS)   =      -0.00160524 Ry
     internal energy E=F+TS    =    -504.63010763 Ry

     The total energy is F=E-TS. E is the sum of the following terms:
     one-electron contribution =    -187.40572746 Ry
     hartree contribution      =     111.07207650 Ry
     xc contribution           =     -57.22640746 Ry
     ewald contribution        =    -294.91818678 Ry
     one-center paw contrib.   =     -76.15186244 Ry

     total magnetization       =     0.00 Bohr mag/cell
     absolute magnetization    =     0.00 Bohr mag/cell

     convergence has been achieved in  32 iterations

     negative rho (up, down):  4.755E-04 4.758E-04

     Forces acting on atoms (cartesian axes, Ry/au):

     atom    1 type  1   force =     0.00000002   -0.00000005    0.00000001
     atom    2 type  2   force =    -0.00000002    0.00000005   -0.00000001

     Total force =     0.000000     Total SCF correction =     0.000000
     SCF correction compared to forces is large: reduce conv_thr to get better values


     Computing stress (Cartesian axis) and pressure


     negative rho (up, down):  4.755E-04 4.758E-04
          total   stress  (Ry/bohr**3)                   (kbar)     P=        2.85
   0.00001940   0.00000000   0.00000000            2.85        0.00        0.00
   0.00000000   0.00001940   0.00000001            0.00        2.85        0.00
   0.00000000   0.00000001   0.00001940            0.00        0.00        2.85


     init_run     :      9.84s CPU     11.07s WALL (       2 calls)
     electrons    :   1908.83s CPU   1980.96s WALL (       7 calls)
     update_pot   :      3.00s CPU      3.05s WALL (       5 calls)
     forces       :      7.98s CPU      8.15s WALL (       7 calls)
     stress       :     16.98s CPU     17.11s WALL (       7 calls)

     Called by init_run:
     wfcinit      :      7.64s CPU      8.13s WALL (       2 calls)
     potinit      :      0.75s CPU      0.98s WALL (       2 calls)
     hinit0       :      1.14s CPU      1.59s WALL (       2 calls)

     Called by electrons:
     c_bands      :   1618.19s CPU   1678.34s WALL (     192 calls)
     sum_band     :    238.64s CPU    248.67s WALL (     192 calls)
     v_of_rho     :      7.95s CPU      8.56s WALL (     199 calls)
     newd         :     17.25s CPU     17.47s WALL (     199 calls)
     PAW_pot      :     27.62s CPU     28.75s WALL (     204 calls)
     mix_rho      :      0.69s CPU      0.79s WALL (     192 calls)

     Called by c_bands:
     init_us_2    :     19.43s CPU     20.27s WALL (  408240 calls)
     cegterg      :   1562.30s CPU   1620.88s WALL (  194524 calls)

     Called by *egterg:
     cdiaghg      :    248.36s CPU    256.18s WALL (  732262 calls)
     h_psi        :    997.21s CPU   1037.73s WALL (  740306 calls)
     s_psi        :     52.93s CPU     55.42s WALL (  740306 calls)
     g_psi        :      3.79s CPU      3.88s WALL (  543766 calls)

     Called by h_psi:
     h_psi:calbec :     71.15s CPU     74.75s WALL (  740306 calls)
     vloc_psi     :    869.64s CPU    903.96s WALL (  740306 calls)
     add_vuspsi   :     52.64s CPU     55.32s WALL (  740306 calls)

     General routines
     calbec       :     99.11s CPU    104.11s WALL (  974162 calls)
     fft          :      3.42s CPU      4.31s WALL (    5246 calls)
     ffts         :      0.10s CPU      0.13s WALL (     782 calls)
     fftw         :    952.00s CPU    990.89s WALL (23662272 calls)
     interpolate  :      0.40s CPU      0.49s WALL (     398 calls)

     Parallel routines
     fft_scatt_xy :    113.89s CPU    118.11s WALL (23668300 calls)
     fft_scatt_yz :    346.73s CPU    361.82s WALL (23668300 calls)

     PWSCF        :  32m29.72s CPU  33m44.23s WALL


   This run was terminated on:  19:23:32   8Dec2021            

=------------------------------------------------------------------------------=
   JOB DONE.
=------------------------------------------------------------------------------=
Note: The following floating-point exceptions are signalling: IEEE_UNDERFLOW_FLAG IEEE_DENORMAL
Note: The following floating-point exceptions are signalling: IEEE_UNDERFLOW_FLAG IEEE_DENORMAL
Note: The following floating-point exceptions are signalling: IEEE_UNDERFLOW_FLAG IEEE_DENORMAL
Note: The following floating-point exceptions are signalling: IEEE_UNDERFLOW_FLAG IEEE_DENORMAL
Note: The following floating-point exceptions are signalling: IEEE_UNDERFLOW_FLAG IEEE_DENORMAL
Note: The following floating-point exceptions are signalling: IEEE_UNDERFLOW_FLAG IEEE_DENORMAL
Note: The following floating-point exceptions are signalling: IEEE_UNDERFLOW_FLAG IEEE_DENORMAL
Note: The following floating-point exceptions are signalling: IEEE_UNDERFLOW_FLAG IEEE_DENORMAL
Note: The following floating-point exceptions are signalling: IEEE_UNDERFLOW_FLAG IEEE_DENORMAL
Note: The following floating-point exceptions are signalling: IEEE_UNDERFLOW_FLAG IEEE_DENORMAL
Note: The following floating-point exceptions are signalling: IEEE_UNDERFLOW_FLAG IEEE_DENORMAL
Note: The following floating-point exceptions are signalling: IEEE_UNDERFLOW_FLAG IEEE_DENORMAL
