
     Program PWSCF v.6.7MaX starts on 10Feb2022 at 21: 0:48 

     This program is part of the open-source Quantum ESPRESSO suite
     for quantum simulation of materials; please cite
         "P. Giannozzi et al., J. Phys.:Condens. Matter 21 395502 (2009);
         "P. Giannozzi et al., J. Phys.:Condens. Matter 29 465901 (2017);
          URL http://www.quantum-espresso.org", 
     in publications or presentations arising from this work. More details at
     http://www.quantum-espresso.org/quote

     Parallel version (MPI), running on    24 processors

     MPI processes distributed on     1 nodes
     R & G space division:  proc/nbgrp/npool/nimage =      24
     Reading input from /home/kevin/QE_CoCrFeMnNi/CoCrFeMnNi/Opt/binary/Opt-B1-CrMn/Mix/MD/300K_0.0001Gpa-B1-CrMn/300K_0.0001Gpa-B1-CrMn.in

     Current dimensions of program PWSCF are:
     Max number of different atomic species (ntypx) = 10
     Max number of k-points (npk) =  40000
     Max angular momentum in pseudopotentials (lmaxx) =  3

     File ./pwscf.md deleted, as requested

     Subspace diagonalization in iterative solution of the eigenvalue problem:
     a serial algorithm will be used

     Found symmetry operation: I + (  0.0000  0.5000 -0.5000)
     This is a supercell, fractional translations are disabled

     Parallelization info
     --------------------
     sticks:   dense  smooth     PW     G-vecs:    dense   smooth      PW
     Min         272      91     24                16576     3195     458
     Max         273      92     25                16579     3198     463
     Sum        6549    2185    593               397847    76693   11075



     bravais-lattice index     =            0
     lattice parameter (alat)  =       8.7234  a.u.
     unit-cell volume          =     663.8202 (a.u.)^3
     number of atoms/cell      =            8
     number of atomic types    =            2
     number of electrons       =       116.00
     number of Kohn-Sham states=           70
     kinetic-energy cutoff     =      90.0000  Ry
     charge density cutoff     =    1080.0000  Ry
     scf convergence threshold =      1.0E-08
     mixing beta               =       0.2000
     number of iterations used =            4  plain     mixing
     energy convergence thresh.=      0.0E+00
     force convergence thresh. =      0.0E+00
     press convergence thresh. =      0.0E+00
     Exchange-correlation=  SLA  PW   PBX  PBC
                           (   1   4   3   4   0   0   0)
     nstep                     =          102


     celldm(1)=   8.723354  celldm(2)=   0.000000  celldm(3)=   0.000000
     celldm(4)=   0.000000  celldm(5)=   0.000000  celldm(6)=   0.000000

     crystal axes: (cart. coord. in units of alat)
               a(1) = (   1.000000   0.000000   0.000000 )  
               a(2) = (   0.000000   1.000000   0.000000 )  
               a(3) = (   0.000000   0.000000   1.000000 )  

     reciprocal axes: (cart. coord. in units 2 pi/alat)
               b(1) = (  1.000000  0.000000  0.000000 )  
               b(2) = (  0.000000  1.000000  0.000000 )  
               b(3) = (  0.000000  0.000000  1.000000 )  


     PseudoPot. # 1 for Mn read from file:
     /opt/QEpot/SSSP_efficiency_pseudos/mn_pbe_v1.5.uspp.F.UPF
     MD5 check sum: 82ef2b46521d7a7d9e736dc3972e4928
     Pseudo is Ultrasoft + core correction, Zval = 15.0
     Generated by new atomic code, or converted to UPF format
     Using radial grid of  859 points,  6 beta functions with: 
                l(1) =   0
                l(2) =   0
                l(3) =   1
                l(4) =   1
                l(5) =   2
                l(6) =   2
     Q(r) pseudized with  8 coefficients,  rinner =    0.950   0.950   0.950
                                                       0.950   0.950

     PseudoPot. # 2 for Cr read from file:
     /opt/QEpot/SSSP_efficiency_pseudos/cr_pbe_v1.5.uspp.F.UPF
     MD5 check sum: 0d52af634a40206e4dee301ad30da4bf
     Pseudo is Ultrasoft + core correction, Zval = 14.0
     Generated by new atomic code, or converted to UPF format
     Using radial grid of  857 points,  6 beta functions with: 
                l(1) =   0
                l(2) =   0
                l(3) =   1
                l(4) =   1
                l(5) =   2
                l(6) =   2
     Q(r) pseudized with  8 coefficients,  rinner =    0.950   0.950   0.950
                                                       0.950   0.950

     atomic species   valence    mass     pseudopotential
        Mn            15.00    54.93800     Mn( 1.00)
        Cr            14.00    51.99610     Cr( 1.00)

      cell mass =  32.50407 AMU 

     Starting magnetic structure 
     atomic species   magnetization
        Mn          -0.000
        Cr           0.000

     No symmetry found



   Cartesian axes

     site n.     atom                  positions (alat units)
         1           Mn  tau(   1) = (   0.0000000   0.5000000   0.0000000  )
         2           Cr  tau(   2) = (   0.5000000   0.0000000   0.5000000  )
         3           Mn  tau(   3) = (   0.0000000   0.0000000   0.5000000  )
         4           Cr  tau(   4) = (   0.5000000   0.5000000   0.0000000  )
         5           Mn  tau(   5) = (   0.5000000   0.0000000   0.0000000  )
         6           Cr  tau(   6) = (   0.0000000   0.5000000   0.5000000  )
         7           Mn  tau(   7) = (   0.5000000   0.5000000   0.5000000  )
         8           Cr  tau(   8) = (   0.0000000   0.0000000   0.0000000  )

     number of k points=    63  Gaussian smearing, width (Ry)=  0.0100
                       cart. coord. in units 2pi/alat
        k(    1) = (   0.0000000   0.0000000   0.0000000), wk =   0.0080000
        k(    2) = (   0.0000000   0.0000000   0.2000000), wk =   0.0160000
        k(    3) = (   0.0000000   0.0000000   0.4000000), wk =   0.0160000
        k(    4) = (   0.0000000   0.2000000   0.0000000), wk =   0.0160000
        k(    5) = (   0.0000000   0.2000000   0.2000000), wk =   0.0160000
        k(    6) = (   0.0000000   0.2000000   0.4000000), wk =   0.0160000
        k(    7) = (   0.0000000   0.2000000  -0.4000000), wk =   0.0160000
        k(    8) = (   0.0000000   0.2000000  -0.2000000), wk =   0.0160000
        k(    9) = (   0.0000000   0.4000000   0.0000000), wk =   0.0160000
        k(   10) = (   0.0000000   0.4000000   0.2000000), wk =   0.0160000
        k(   11) = (   0.0000000   0.4000000   0.4000000), wk =   0.0160000
        k(   12) = (   0.0000000   0.4000000  -0.4000000), wk =   0.0160000
        k(   13) = (   0.0000000   0.4000000  -0.2000000), wk =   0.0160000
        k(   14) = (   0.2000000   0.0000000   0.0000000), wk =   0.0160000
        k(   15) = (   0.2000000   0.0000000   0.2000000), wk =   0.0160000
        k(   16) = (   0.2000000   0.0000000   0.4000000), wk =   0.0160000
        k(   17) = (   0.2000000   0.0000000  -0.4000000), wk =   0.0160000
        k(   18) = (   0.2000000   0.0000000  -0.2000000), wk =   0.0160000
        k(   19) = (   0.2000000   0.2000000   0.0000000), wk =   0.0160000
        k(   20) = (   0.2000000   0.2000000   0.2000000), wk =   0.0160000
        k(   21) = (   0.2000000   0.2000000   0.4000000), wk =   0.0160000
        k(   22) = (   0.2000000   0.2000000  -0.4000000), wk =   0.0160000
        k(   23) = (   0.2000000   0.2000000  -0.2000000), wk =   0.0160000
        k(   24) = (   0.2000000   0.4000000   0.0000000), wk =   0.0160000
        k(   25) = (   0.2000000   0.4000000   0.2000000), wk =   0.0160000
        k(   26) = (   0.2000000   0.4000000   0.4000000), wk =   0.0160000
        k(   27) = (   0.2000000   0.4000000  -0.4000000), wk =   0.0160000
        k(   28) = (   0.2000000   0.4000000  -0.2000000), wk =   0.0160000
        k(   29) = (   0.2000000  -0.4000000   0.0000000), wk =   0.0160000
        k(   30) = (   0.2000000  -0.4000000   0.2000000), wk =   0.0160000
        k(   31) = (   0.2000000  -0.4000000   0.4000000), wk =   0.0160000
        k(   32) = (   0.2000000  -0.4000000  -0.4000000), wk =   0.0160000
        k(   33) = (   0.2000000  -0.4000000  -0.2000000), wk =   0.0160000
        k(   34) = (   0.2000000  -0.2000000   0.0000000), wk =   0.0160000
        k(   35) = (   0.2000000  -0.2000000   0.2000000), wk =   0.0160000
        k(   36) = (   0.2000000  -0.2000000   0.4000000), wk =   0.0160000
        k(   37) = (   0.2000000  -0.2000000  -0.4000000), wk =   0.0160000
        k(   38) = (   0.2000000  -0.2000000  -0.2000000), wk =   0.0160000
        k(   39) = (   0.4000000   0.0000000   0.0000000), wk =   0.0160000
        k(   40) = (   0.4000000   0.0000000   0.2000000), wk =   0.0160000
        k(   41) = (   0.4000000   0.0000000   0.4000000), wk =   0.0160000
        k(   42) = (   0.4000000   0.0000000  -0.4000000), wk =   0.0160000
        k(   43) = (   0.4000000   0.0000000  -0.2000000), wk =   0.0160000
        k(   44) = (   0.4000000   0.2000000   0.0000000), wk =   0.0160000
        k(   45) = (   0.4000000   0.2000000   0.2000000), wk =   0.0160000
        k(   46) = (   0.4000000   0.2000000   0.4000000), wk =   0.0160000
        k(   47) = (   0.4000000   0.2000000  -0.4000000), wk =   0.0160000
        k(   48) = (   0.4000000   0.2000000  -0.2000000), wk =   0.0160000
        k(   49) = (   0.4000000   0.4000000   0.0000000), wk =   0.0160000
        k(   50) = (   0.4000000   0.4000000   0.2000000), wk =   0.0160000
        k(   51) = (   0.4000000   0.4000000   0.4000000), wk =   0.0160000
        k(   52) = (   0.4000000   0.4000000  -0.4000000), wk =   0.0160000
        k(   53) = (   0.4000000   0.4000000  -0.2000000), wk =   0.0160000
        k(   54) = (   0.4000000  -0.4000000   0.0000000), wk =   0.0160000
        k(   55) = (   0.4000000  -0.4000000   0.2000000), wk =   0.0160000
        k(   56) = (   0.4000000  -0.4000000   0.4000000), wk =   0.0160000
        k(   57) = (   0.4000000  -0.4000000  -0.4000000), wk =   0.0160000
        k(   58) = (   0.4000000  -0.4000000  -0.2000000), wk =   0.0160000
        k(   59) = (   0.4000000  -0.2000000   0.0000000), wk =   0.0160000
        k(   60) = (   0.4000000  -0.2000000   0.2000000), wk =   0.0160000
        k(   61) = (   0.4000000  -0.2000000   0.4000000), wk =   0.0160000
        k(   62) = (   0.4000000  -0.2000000  -0.4000000), wk =   0.0160000
        k(   63) = (   0.4000000  -0.2000000  -0.2000000), wk =   0.0160000

     Dense  grid:   397847 G-vectors     FFT dimensions: (  96,  96,  96)

     Smooth grid:    76693 G-vectors     FFT dimensions: (  54,  54,  54)

     Estimated max dynamical RAM per process >     128.88 MB

     Estimated total dynamical RAM >       3.02 GB

     Check: negative core charge=   -0.000013
     Generating pointlists ...
     new r_m :   0.2063 (alat units)  1.7992 (a.u.) for type    1
     new r_m :   0.2063 (alat units)  1.7992 (a.u.) for type    2

     Initial potential from superposition of free atoms

     starting charge  109.99960, renormalised to  116.00000

     negative rho (up, down):  1.633E-03 1.633E-03
     Starting wfcs are   92 randomized atomic wfcs

     total cpu time spent up to now is       12.2 secs

     Self-consistent Calculation

     iteration #  1     ecut=    90.00 Ry     beta= 0.20
     CG style diagonalization
     ethr =  1.00E-02,  avg # of iterations =  2.8

     negative rho (up, down):  1.547E-03 1.547E-03

     total cpu time spent up to now is       39.1 secs

     total energy              =   -1540.12808763 Ry
     estimated scf accuracy    <      32.33001652 Ry

     total magnetization       =     0.00 Bohr mag/cell
     absolute magnetization    =     0.01 Bohr mag/cell

     iteration #  2     ecut=    90.00 Ry     beta= 0.20
     CG style diagonalization
     ethr =  1.00E-02,  avg # of iterations =  4.0

     negative rho (up, down):  1.982E-03 1.981E-03

     total cpu time spent up to now is       73.5 secs

     total energy              =   -1544.51824453 Ry
     estimated scf accuracy    <      36.59704214 Ry

     total magnetization       =    -0.09 Bohr mag/cell
     absolute magnetization    =     0.11 Bohr mag/cell

     iteration #  3     ecut=    90.00 Ry     beta= 0.20
     CG style diagonalization
     ethr =  1.00E-02,  avg # of iterations =  3.4

     negative rho (up, down):  3.549E-03 3.533E-03

     total cpu time spent up to now is      103.1 secs

     total energy              =   -1543.92472082 Ry
     estimated scf accuracy    <       4.05368756 Ry

     total magnetization       =    -0.06 Bohr mag/cell
     absolute magnetization    =     0.11 Bohr mag/cell

     iteration #  4     ecut=    90.00 Ry     beta= 0.20
     CG style diagonalization
     c_bands:  1 eigenvalues not converged
     c_bands:  1 eigenvalues not converged
     c_bands:  1 eigenvalues not converged
     ethr =  3.49E-03,  avg # of iterations =  4.4

     negative rho (up, down):  1.703E-03 1.696E-03

     total cpu time spent up to now is      141.0 secs

     total energy              =   -1540.25289045 Ry
     estimated scf accuracy    <      71.14666371 Ry

     total magnetization       =    -0.06 Bohr mag/cell
     absolute magnetization    =     0.12 Bohr mag/cell

     iteration #  5     ecut=    90.00 Ry     beta= 0.20
     CG style diagonalization
     ethr =  3.49E-03,  avg # of iterations =  4.3

     negative rho (up, down):  1.718E-03 1.712E-03

     total cpu time spent up to now is      178.4 secs

     total energy              =   -1546.21228999 Ry
     estimated scf accuracy    <       7.33039471 Ry

     total magnetization       =     0.05 Bohr mag/cell
     absolute magnetization    =     0.16 Bohr mag/cell

     iteration #  6     ecut=    90.00 Ry     beta= 0.20
     CG style diagonalization
     ethr =  3.49E-03,  avg # of iterations =  3.1

     negative rho (up, down):  1.792E-03 1.787E-03

     total cpu time spent up to now is      205.8 secs

     total energy              =   -1546.08393353 Ry
     estimated scf accuracy    <       4.65409259 Ry

     total magnetization       =     0.05 Bohr mag/cell
     absolute magnetization    =     0.12 Bohr mag/cell

     iteration #  7     ecut=    90.00 Ry     beta= 0.20
     CG style diagonalization
     ethr =  3.49E-03,  avg # of iterations =  3.0

     negative rho (up, down):  1.800E-03 1.795E-03

     total cpu time spent up to now is      232.1 secs

     total energy              =   -1546.14465073 Ry
     estimated scf accuracy    <       0.97408458 Ry

     total magnetization       =     0.03 Bohr mag/cell
     absolute magnetization    =     0.10 Bohr mag/cell

     iteration #  8     ecut=    90.00 Ry     beta= 0.20
     CG style diagonalization
     ethr =  8.40E-04,  avg # of iterations =  3.1

     negative rho (up, down):  1.789E-03 1.778E-03

     total cpu time spent up to now is      259.6 secs

     total energy              =   -1546.26003319 Ry
     estimated scf accuracy    <       0.13782042 Ry

     total magnetization       =    -0.00 Bohr mag/cell
     absolute magnetization    =     0.09 Bohr mag/cell

     iteration #  9     ecut=    90.00 Ry     beta= 0.20
     CG style diagonalization
     c_bands:  1 eigenvalues not converged
     c_bands:  1 eigenvalues not converged
     c_bands:  2 eigenvalues not converged
     c_bands:  1 eigenvalues not converged
     c_bands:  1 eigenvalues not converged
     c_bands:  1 eigenvalues not converged
     c_bands:  2 eigenvalues not converged
     ethr =  1.19E-04,  avg # of iterations =  3.9

     negative rho (up, down):  1.822E-03 1.832E-03

     total cpu time spent up to now is      294.0 secs

     total energy              =   -1546.15041989 Ry
     estimated scf accuracy    <       0.45688630 Ry

     total magnetization       =     0.02 Bohr mag/cell
     absolute magnetization    =     0.04 Bohr mag/cell

     iteration # 10     ecut=    90.00 Ry     beta= 0.20
     CG style diagonalization
     ethr =  1.19E-04,  avg # of iterations =  4.3

     negative rho (up, down):  1.775E-03 1.785E-03

     total cpu time spent up to now is      331.1 secs

     total energy              =   -1546.24285947 Ry
     estimated scf accuracy    <       1.15779778 Ry

     total magnetization       =     0.02 Bohr mag/cell
     absolute magnetization    =     0.07 Bohr mag/cell

     iteration # 11     ecut=    90.00 Ry     beta= 0.20
     CG style diagonalization
     ethr =  1.19E-04,  avg # of iterations =  3.1

     negative rho (up, down):  1.767E-03 1.777E-03

     total cpu time spent up to now is      358.4 secs

     total energy              =   -1546.26009301 Ry
     estimated scf accuracy    <       0.19355138 Ry

     total magnetization       =     0.01 Bohr mag/cell
     absolute magnetization    =     0.06 Bohr mag/cell

     iteration # 12     ecut=    90.00 Ry     beta= 0.20
     CG style diagonalization
     c_bands:  1 eigenvalues not converged
     ethr =  1.19E-04,  avg # of iterations =  3.0

     negative rho (up, down):  1.685E-03 1.699E-03

     total cpu time spent up to now is      384.7 secs

     total energy              =   -1546.24016176 Ry
     estimated scf accuracy    <       0.14627515 Ry

     total magnetization       =     0.01 Bohr mag/cell
     absolute magnetization    =     0.06 Bohr mag/cell

     iteration # 13     ecut=    90.00 Ry     beta= 0.20
     CG style diagonalization
     ethr =  1.19E-04,  avg # of iterations =  3.2

     negative rho (up, down):  1.703E-03 1.717E-03

     total cpu time spent up to now is      412.5 secs

     total energy              =   -1546.25180990 Ry
     estimated scf accuracy    <       0.17090090 Ry

     total magnetization       =     0.01 Bohr mag/cell
     absolute magnetization    =     0.05 Bohr mag/cell

     iteration # 14     ecut=    90.00 Ry     beta= 0.20
     CG style diagonalization
     ethr =  1.19E-04,  avg # of iterations =  3.0

     negative rho (up, down):  1.702E-03 1.717E-03

     total cpu time spent up to now is      438.8 secs

     total energy              =   -1546.25773132 Ry
     estimated scf accuracy    <       0.01178077 Ry

     total magnetization       =     0.01 Bohr mag/cell
     absolute magnetization    =     0.06 Bohr mag/cell

     iteration # 15     ecut=    90.00 Ry     beta= 0.20
     CG style diagonalization
     c_bands:  1 eigenvalues not converged
     c_bands:  1 eigenvalues not converged
     c_bands:  1 eigenvalues not converged
     c_bands:  1 eigenvalues not converged
     c_bands:  2 eigenvalues not converged
     c_bands:  1 eigenvalues not converged
     c_bands:  2 eigenvalues not converged
     c_bands:  1 eigenvalues not converged
     c_bands:  1 eigenvalues not converged
     c_bands:  1 eigenvalues not converged
     c_bands:  2 eigenvalues not converged
     c_bands:  1 eigenvalues not converged
     c_bands:  1 eigenvalues not converged
     c_bands:  1 eigenvalues not converged
     c_bands:  1 eigenvalues not converged
     c_bands:  2 eigenvalues not converged
     c_bands:  1 eigenvalues not converged
     c_bands:  2 eigenvalues not converged
     c_bands:  1 eigenvalues not converged
     c_bands:  1 eigenvalues not converged
     c_bands:  1 eigenvalues not converged
     c_bands:  1 eigenvalues not converged
     c_bands:  3 eigenvalues not converged
     c_bands:  1 eigenvalues not converged
     c_bands:  3 eigenvalues not converged
     c_bands:  3 eigenvalues not converged
     c_bands:  3 eigenvalues not converged
     c_bands:  2 eigenvalues not converged
     c_bands:  2 eigenvalues not converged
     ethr =  1.02E-05,  avg # of iterations =  3.5

     negative rho (up, down):  1.698E-03 1.714E-03

     total cpu time spent up to now is      469.0 secs

     total energy              =   -1546.25828238 Ry
     estimated scf accuracy    <       0.01191160 Ry

     total magnetization       =     0.01 Bohr mag/cell
     absolute magnetization    =     0.06 Bohr mag/cell

     iteration # 16     ecut=    90.00 Ry     beta= 0.20
     CG style diagonalization
     c_bands:  1 eigenvalues not converged
     c_bands:  1 eigenvalues not converged
     c_bands:  1 eigenvalues not converged
     c_bands:  1 eigenvalues not converged
     c_bands:  1 eigenvalues not converged
     ethr =  1.02E-05,  avg # of iterations =  3.1

     negative rho (up, down):  1.652E-03 1.674E-03

     total cpu time spent up to now is      496.3 secs

     total energy              =   -1546.25896543 Ry
     estimated scf accuracy    <       0.00571876 Ry

     total magnetization       =    -0.00 Bohr mag/cell
     absolute magnetization    =     0.06 Bohr mag/cell

     iteration # 17     ecut=    90.00 Ry     beta= 0.20
     CG style diagonalization
     c_bands:  1 eigenvalues not converged
     c_bands:  1 eigenvalues not converged
     c_bands:  1 eigenvalues not converged
     c_bands:  1 eigenvalues not converged
     c_bands:  1 eigenvalues not converged
     c_bands:  1 eigenvalues not converged
     c_bands:  1 eigenvalues not converged
     c_bands:  1 eigenvalues not converged
     c_bands:  1 eigenvalues not converged
     c_bands:  1 eigenvalues not converged
     c_bands:  1 eigenvalues not converged
     c_bands:  1 eigenvalues not converged
     c_bands:  1 eigenvalues not converged
     c_bands:  1 eigenvalues not converged
     c_bands:  1 eigenvalues not converged
     c_bands:  1 eigenvalues not converged
     c_bands:  1 eigenvalues not converged
     c_bands:  1 eigenvalues not converged
     c_bands:  1 eigenvalues not converged
     c_bands:  1 eigenvalues not converged
     c_bands:  1 eigenvalues not converged
     ethr =  4.93E-06,  avg # of iterations =  3.4

     negative rho (up, down):  1.659E-03 1.680E-03

     total cpu time spent up to now is      526.2 secs

     total energy              =   -1546.25765241 Ry
     estimated scf accuracy    <       0.02760607 Ry

     total magnetization       =    -0.00 Bohr mag/cell
     absolute magnetization    =     0.07 Bohr mag/cell

     iteration # 18     ecut=    90.00 Ry     beta= 0.20
     CG style diagonalization
     c_bands:  1 eigenvalues not converged
     c_bands:  1 eigenvalues not converged
     c_bands:  1 eigenvalues not converged
     c_bands:  1 eigenvalues not converged
     c_bands:  1 eigenvalues not converged
     c_bands:  1 eigenvalues not converged
     c_bands:  1 eigenvalues not converged
     c_bands:  1 eigenvalues not converged
     c_bands:  1 eigenvalues not converged
     c_bands:  1 eigenvalues not converged
     ethr =  4.93E-06,  avg # of iterations =  3.4

     negative rho (up, down):  1.672E-03 1.691E-03

     total cpu time spent up to now is      555.5 secs

     total energy              =   -1546.25868196 Ry
     estimated scf accuracy    <       0.01012327 Ry

     total magnetization       =    -0.00 Bohr mag/cell
     absolute magnetization    =     0.07 Bohr mag/cell

     iteration # 19     ecut=    90.00 Ry     beta= 0.20
     CG style diagonalization
     c_bands:  1 eigenvalues not converged
     c_bands:  1 eigenvalues not converged
     c_bands:  1 eigenvalues not converged
     c_bands:  1 eigenvalues not converged
     c_bands:  1 eigenvalues not converged
     ethr =  4.93E-06,  avg # of iterations =  3.1

     negative rho (up, down):  1.652E-03 1.674E-03

     total cpu time spent up to now is      582.2 secs

     total energy              =   -1546.25923070 Ry
     estimated scf accuracy    <       0.00203797 Ry

     total magnetization       =    -0.00 Bohr mag/cell
     absolute magnetization    =     0.07 Bohr mag/cell

     iteration # 20     ecut=    90.00 Ry     beta= 0.20
     CG style diagonalization
     c_bands:  1 eigenvalues not converged
     c_bands:  1 eigenvalues not converged
     c_bands:  1 eigenvalues not converged
     c_bands:  1 eigenvalues not converged
     c_bands:  1 eigenvalues not converged
     c_bands:  1 eigenvalues not converged
     c_bands:  1 eigenvalues not converged
     c_bands:  2 eigenvalues not converged
     c_bands:  1 eigenvalues not converged
     c_bands:  1 eigenvalues not converged
     c_bands:  1 eigenvalues not converged
     c_bands:  1 eigenvalues not converged
     c_bands:  1 eigenvalues not converged
     ethr =  1.76E-06,  avg # of iterations =  3.2

     negative rho (up, down):  1.649E-03 1.672E-03

     total cpu time spent up to now is      609.8 secs

     total energy              =   -1546.25921967 Ry
     estimated scf accuracy    <       0.00127121 Ry

     total magnetization       =    -0.00 Bohr mag/cell
     absolute magnetization    =     0.07 Bohr mag/cell

     iteration # 21     ecut=    90.00 Ry     beta= 0.20
     CG style diagonalization
     c_bands:  1 eigenvalues not converged
     c_bands:  1 eigenvalues not converged
     c_bands:  2 eigenvalues not converged
     c_bands:  1 eigenvalues not converged
     c_bands:  2 eigenvalues not converged
     ethr =  1.10E-06,  avg # of iterations =  3.1

     negative rho (up, down):  1.650E-03 1.673E-03

     total cpu time spent up to now is      637.0 secs

     total energy              =   -1546.25921385 Ry
     estimated scf accuracy    <       0.00152373 Ry

     total magnetization       =    -0.00 Bohr mag/cell
     absolute magnetization    =     0.08 Bohr mag/cell

     iteration # 22     ecut=    90.00 Ry     beta= 0.20
     CG style diagonalization
     c_bands:  1 eigenvalues not converged
     ethr =  1.10E-06,  avg # of iterations =  3.1

     negative rho (up, down):  1.637E-03 1.663E-03

     total cpu time spent up to now is      663.7 secs

     total energy              =   -1546.25924216 Ry
     estimated scf accuracy    <       0.00197239 Ry

     total magnetization       =    -0.01 Bohr mag/cell
     absolute magnetization    =     0.08 Bohr mag/cell

     iteration # 23     ecut=    90.00 Ry     beta= 0.20
     CG style diagonalization
     c_bands:  1 eigenvalues not converged
     ethr =  1.10E-06,  avg # of iterations =  3.0

     negative rho (up, down):  1.638E-03 1.664E-03

     total cpu time spent up to now is      689.9 secs

     total energy              =   -1546.25932705 Ry
     estimated scf accuracy    <       0.00014671 Ry

     total magnetization       =    -0.01 Bohr mag/cell
     absolute magnetization    =     0.09 Bohr mag/cell

     iteration # 24     ecut=    90.00 Ry     beta= 0.20
     CG style diagonalization
     ethr =  1.26E-07,  avg # of iterations =  3.5

     negative rho (up, down):  1.638E-03 1.664E-03

     total cpu time spent up to now is      720.4 secs

     total energy              =   -1546.25935311 Ry
     estimated scf accuracy    <       0.00005378 Ry

     total magnetization       =    -0.01 Bohr mag/cell
     absolute magnetization    =     0.09 Bohr mag/cell

     iteration # 25     ecut=    90.00 Ry     beta= 0.20
     CG style diagonalization
     ethr =  4.64E-08,  avg # of iterations =  3.6

     negative rho (up, down):  1.637E-03 1.664E-03

     total cpu time spent up to now is      751.8 secs

     total energy              =   -1546.25935515 Ry
     estimated scf accuracy    <       0.00031951 Ry

     total magnetization       =    -0.01 Bohr mag/cell
     absolute magnetization    =     0.09 Bohr mag/cell

     iteration # 26     ecut=    90.00 Ry     beta= 0.20
     CG style diagonalization
     ethr =  4.64E-08,  avg # of iterations =  3.2

     negative rho (up, down):  1.637E-03 1.664E-03

     total cpu time spent up to now is      779.4 secs

     total energy              =   -1546.25936785 Ry
     estimated scf accuracy    <       0.00001063 Ry

     total magnetization       =    -0.01 Bohr mag/cell
     absolute magnetization    =     0.09 Bohr mag/cell

     iteration # 27     ecut=    90.00 Ry     beta= 0.20
     CG style diagonalization
     ethr =  9.16E-09,  avg # of iterations =  3.4

     negative rho (up, down):  1.637E-03 1.665E-03

     total cpu time spent up to now is      808.6 secs

     total energy              =   -1546.25936928 Ry
     estimated scf accuracy    <       0.00000516 Ry

     total magnetization       =    -0.01 Bohr mag/cell
     absolute magnetization    =     0.10 Bohr mag/cell

     iteration # 28     ecut=    90.00 Ry     beta= 0.20
     CG style diagonalization
     ethr =  4.45E-09,  avg # of iterations =  3.4

     negative rho (up, down):  1.636E-03 1.665E-03

     total cpu time spent up to now is      838.4 secs

     total energy              =   -1546.25937037 Ry
     estimated scf accuracy    <       0.00000789 Ry

     total magnetization       =    -0.01 Bohr mag/cell
     absolute magnetization    =     0.10 Bohr mag/cell

     iteration # 29     ecut=    90.00 Ry     beta= 0.20
     CG style diagonalization
     c_bands:  1 eigenvalues not converged
     ethr =  4.45E-09,  avg # of iterations =  3.1

     negative rho (up, down):  1.636E-03 1.665E-03

     total cpu time spent up to now is      865.4 secs

     total energy              =   -1546.25937075 Ry
     estimated scf accuracy    <       0.00000973 Ry

     total magnetization       =    -0.01 Bohr mag/cell
     absolute magnetization    =     0.10 Bohr mag/cell

     iteration # 30     ecut=    90.00 Ry     beta= 0.20
     CG style diagonalization
     ethr =  4.45E-09,  avg # of iterations =  3.0

     negative rho (up, down):  1.636E-03 1.666E-03

     total cpu time spent up to now is      891.7 secs

     total energy              =   -1546.25937123 Ry
     estimated scf accuracy    <       0.00000369 Ry

     total magnetization       =    -0.01 Bohr mag/cell
     absolute magnetization    =     0.11 Bohr mag/cell

     iteration # 31     ecut=    90.00 Ry     beta= 0.20
     CG style diagonalization
     c_bands:  1 eigenvalues not converged
     ethr =  3.18E-09,  avg # of iterations =  3.0

     negative rho (up, down):  1.635E-03 1.666E-03

     total cpu time spent up to now is      917.8 secs

     total energy              =   -1546.25937194 Ry
     estimated scf accuracy    <       0.00000328 Ry

     total magnetization       =    -0.01 Bohr mag/cell
     absolute magnetization    =     0.11 Bohr mag/cell

     iteration # 32     ecut=    90.00 Ry     beta= 0.20
     CG style diagonalization
     ethr =  2.82E-09,  avg # of iterations =  3.0

     negative rho (up, down):  1.635E-03 1.667E-03

     total cpu time spent up to now is      944.1 secs

     total energy              =   -1546.25937249 Ry
     estimated scf accuracy    <       0.00000343 Ry

     total magnetization       =    -0.01 Bohr mag/cell
     absolute magnetization    =     0.11 Bohr mag/cell

     iteration # 33     ecut=    90.00 Ry     beta= 0.20
     CG style diagonalization
     ethr =  2.82E-09,  avg # of iterations =  3.0

     negative rho (up, down):  1.635E-03 1.667E-03

     total cpu time spent up to now is      970.2 secs

     total energy              =   -1546.25937291 Ry
     estimated scf accuracy    <       0.00000314 Ry

     total magnetization       =    -0.01 Bohr mag/cell
     absolute magnetization    =     0.12 Bohr mag/cell

     iteration # 34     ecut=    90.00 Ry     beta= 0.20
     CG style diagonalization
     ethr =  2.71E-09,  avg # of iterations =  3.0

     negative rho (up, down):  1.635E-03 1.667E-03

     total cpu time spent up to now is      996.4 secs

     total energy              =   -1546.25937297 Ry
     estimated scf accuracy    <       0.00000337 Ry

     total magnetization       =    -0.01 Bohr mag/cell
     absolute magnetization    =     0.12 Bohr mag/cell

     iteration # 35     ecut=    90.00 Ry     beta= 0.20
     CG style diagonalization
     ethr =  2.71E-09,  avg # of iterations =  3.0

     negative rho (up, down):  1.635E-03 1.667E-03

     total cpu time spent up to now is     1022.5 secs

     total energy              =   -1546.25937306 Ry
     estimated scf accuracy    <       0.00000348 Ry

     total magnetization       =    -0.01 Bohr mag/cell
     absolute magnetization    =     0.12 Bohr mag/cell

     iteration # 36     ecut=    90.00 Ry     beta= 0.20
     CG style diagonalization
     ethr =  2.71E-09,  avg # of iterations =  3.0

     negative rho (up, down):  1.634E-03 1.667E-03

     total cpu time spent up to now is     1048.6 secs

     total energy              =   -1546.25937334 Ry
     estimated scf accuracy    <       0.00000358 Ry

     total magnetization       =    -0.01 Bohr mag/cell
     absolute magnetization    =     0.12 Bohr mag/cell

     iteration # 37     ecut=    90.00 Ry     beta= 0.20
     CG style diagonalization
     ethr =  2.71E-09,  avg # of iterations =  3.0

     negative rho (up, down):  1.633E-03 1.669E-03

     total cpu time spent up to now is     1074.8 secs

     total energy              =   -1546.25937468 Ry
     estimated scf accuracy    <       0.00000443 Ry

     total magnetization       =    -0.01 Bohr mag/cell
     absolute magnetization    =     0.12 Bohr mag/cell

     iteration # 38     ecut=    90.00 Ry     beta= 0.20
     CG style diagonalization
     ethr =  2.71E-09,  avg # of iterations =  3.1

     negative rho (up, down):  1.634E-03 1.668E-03

     total cpu time spent up to now is     1102.0 secs

     total energy              =   -1546.25937352 Ry
     estimated scf accuracy    <       0.00001195 Ry

     total magnetization       =    -0.02 Bohr mag/cell
     absolute magnetization    =     0.13 Bohr mag/cell

     iteration # 39     ecut=    90.00 Ry     beta= 0.20
     CG style diagonalization
     ethr =  2.71E-09,  avg # of iterations =  3.0

     negative rho (up, down):  1.634E-03 1.668E-03

     total cpu time spent up to now is     1128.3 secs

     total energy              =   -1546.25937372 Ry
     estimated scf accuracy    <       0.00000806 Ry

     total magnetization       =    -0.01 Bohr mag/cell
     absolute magnetization    =     0.13 Bohr mag/cell

     iteration # 40     ecut=    90.00 Ry     beta= 0.20
     CG style diagonalization
     ethr =  2.71E-09,  avg # of iterations =  3.0

     negative rho (up, down):  1.634E-03 1.668E-03

     total cpu time spent up to now is     1154.5 secs

     total energy              =   -1546.25937384 Ry
     estimated scf accuracy    <       0.00000637 Ry

     total magnetization       =    -0.01 Bohr mag/cell
     absolute magnetization    =     0.13 Bohr mag/cell

     iteration # 41     ecut=    90.00 Ry     beta= 0.20
     CG style diagonalization
     ethr =  2.71E-09,  avg # of iterations =  3.0

     negative rho (up, down):  1.633E-03 1.669E-03

     total cpu time spent up to now is     1180.5 secs

     total energy              =   -1546.25937460 Ry
     estimated scf accuracy    <       0.00000427 Ry

     total magnetization       =    -0.01 Bohr mag/cell
     absolute magnetization    =     0.13 Bohr mag/cell

     iteration # 42     ecut=    90.00 Ry     beta= 0.20
     CG style diagonalization
     ethr =  2.71E-09,  avg # of iterations =  3.0

     negative rho (up, down):  1.633E-03 1.669E-03

     total cpu time spent up to now is     1206.7 secs

     total energy              =   -1546.25937496 Ry
     estimated scf accuracy    <       0.00000775 Ry

     total magnetization       =    -0.02 Bohr mag/cell
     absolute magnetization    =     0.13 Bohr mag/cell

     iteration # 43     ecut=    90.00 Ry     beta= 0.20
     CG style diagonalization
     ethr =  2.71E-09,  avg # of iterations =  3.0

     negative rho (up, down):  1.633E-03 1.669E-03

     total cpu time spent up to now is     1232.8 secs

     total energy              =   -1546.25937547 Ry
     estimated scf accuracy    <       0.00000485 Ry

     total magnetization       =    -0.02 Bohr mag/cell
     absolute magnetization    =     0.13 Bohr mag/cell

     iteration # 44     ecut=    90.00 Ry     beta= 0.20
     CG style diagonalization
     ethr =  2.71E-09,  avg # of iterations =  3.0

     negative rho (up, down):  1.633E-03 1.669E-03

     total cpu time spent up to now is     1258.9 secs

     total energy              =   -1546.25937575 Ry
     estimated scf accuracy    <       0.00000477 Ry

     total magnetization       =    -0.02 Bohr mag/cell
     absolute magnetization    =     0.14 Bohr mag/cell

     iteration # 45     ecut=    90.00 Ry     beta= 0.20
     CG style diagonalization
     ethr =  2.71E-09,  avg # of iterations =  3.0

     negative rho (up, down):  1.633E-03 1.669E-03

     total cpu time spent up to now is     1285.0 secs

     total energy              =   -1546.25937582 Ry
     estimated scf accuracy    <       0.00000466 Ry

     total magnetization       =    -0.02 Bohr mag/cell
     absolute magnetization    =     0.14 Bohr mag/cell

     iteration # 46     ecut=    90.00 Ry     beta= 0.20
     CG style diagonalization
     ethr =  2.71E-09,  avg # of iterations =  3.0

     negative rho (up, down):  1.632E-03 1.670E-03

     total cpu time spent up to now is     1311.0 secs

     total energy              =   -1546.25937655 Ry
     estimated scf accuracy    <       0.00000475 Ry

     total magnetization       =    -0.02 Bohr mag/cell
     absolute magnetization    =     0.14 Bohr mag/cell

     iteration # 47     ecut=    90.00 Ry     beta= 0.20
     CG style diagonalization
     ethr =  2.71E-09,  avg # of iterations =  3.0

     negative rho (up, down):  1.632E-03 1.670E-03

     total cpu time spent up to now is     1337.1 secs

     total energy              =   -1546.25937686 Ry
     estimated scf accuracy    <       0.00000770 Ry

     total magnetization       =    -0.02 Bohr mag/cell
     absolute magnetization    =     0.14 Bohr mag/cell

     iteration # 48     ecut=    90.00 Ry     beta= 0.20
     CG style diagonalization
     ethr =  2.71E-09,  avg # of iterations =  3.0

     negative rho (up, down):  1.631E-03 1.671E-03

     total cpu time spent up to now is     1363.2 secs

     total energy              =   -1546.25937733 Ry
     estimated scf accuracy    <       0.00000528 Ry

     total magnetization       =    -0.02 Bohr mag/cell
     absolute magnetization    =     0.15 Bohr mag/cell

     iteration # 49     ecut=    90.00 Ry     beta= 0.20
     CG style diagonalization
     ethr =  2.71E-09,  avg # of iterations =  3.0

     negative rho (up, down):  1.631E-03 1.671E-03

     total cpu time spent up to now is     1389.4 secs

     total energy              =   -1546.25937751 Ry
     estimated scf accuracy    <       0.00000746 Ry

     total magnetization       =    -0.02 Bohr mag/cell
     absolute magnetization    =     0.15 Bohr mag/cell

     iteration # 50     ecut=    90.00 Ry     beta= 0.20
     CG style diagonalization
     ethr =  2.71E-09,  avg # of iterations =  3.0

     negative rho (up, down):  1.631E-03 1.671E-03

     total cpu time spent up to now is     1415.5 secs

     total energy              =   -1546.25937747 Ry
     estimated scf accuracy    <       0.00000567 Ry

     total magnetization       =    -0.02 Bohr mag/cell
     absolute magnetization    =     0.15 Bohr mag/cell

     iteration # 51     ecut=    90.00 Ry     beta= 0.20
     CG style diagonalization
     ethr =  2.71E-09,  avg # of iterations =  3.0

     negative rho (up, down):  1.631E-03 1.671E-03

     total cpu time spent up to now is     1441.5 secs

     total energy              =   -1546.25937828 Ry
     estimated scf accuracy    <       0.00000691 Ry

     total magnetization       =    -0.02 Bohr mag/cell
     absolute magnetization    =     0.15 Bohr mag/cell

     iteration # 52     ecut=    90.00 Ry     beta= 0.20
     CG style diagonalization
     c_bands:  1 eigenvalues not converged
     ethr =  2.71E-09,  avg # of iterations =  3.1

     negative rho (up, down):  1.630E-03 1.672E-03

     total cpu time spent up to now is     1468.0 secs

     total energy              =   -1546.25937868 Ry
     estimated scf accuracy    <       0.00001052 Ry

     total magnetization       =    -0.02 Bohr mag/cell
     absolute magnetization    =     0.16 Bohr mag/cell

     iteration # 53     ecut=    90.00 Ry     beta= 0.20
     CG style diagonalization
     c_bands:  1 eigenvalues not converged
     ethr =  2.71E-09,  avg # of iterations =  3.0

     negative rho (up, down):  1.630E-03 1.672E-03

     total cpu time spent up to now is     1494.1 secs

     total energy              =   -1546.25937909 Ry
     estimated scf accuracy    <       0.00000617 Ry

     total magnetization       =    -0.02 Bohr mag/cell
     absolute magnetization    =     0.16 Bohr mag/cell

     iteration # 54     ecut=    90.00 Ry     beta= 0.20
     CG style diagonalization
     ethr =  2.71E-09,  avg # of iterations =  3.0

     negative rho (up, down):  1.630E-03 1.672E-03

     total cpu time spent up to now is     1520.3 secs

     total energy              =   -1546.25937917 Ry
     estimated scf accuracy    <       0.00000920 Ry

     total magnetization       =    -0.02 Bohr mag/cell
     absolute magnetization    =     0.16 Bohr mag/cell

     iteration # 55     ecut=    90.00 Ry     beta= 0.20
     CG style diagonalization
     ethr =  2.71E-09,  avg # of iterations =  3.0

     negative rho (up, down):  1.630E-03 1.672E-03

     total cpu time spent up to now is     1546.3 secs

     total energy              =   -1546.25937976 Ry
     estimated scf accuracy    <       0.00000632 Ry

     total magnetization       =    -0.02 Bohr mag/cell
     absolute magnetization    =     0.16 Bohr mag/cell

     iteration # 56     ecut=    90.00 Ry     beta= 0.20
     CG style diagonalization
     ethr =  2.71E-09,  avg # of iterations =  3.1

     negative rho (up, down):  1.629E-03 1.673E-03

     total cpu time spent up to now is     1572.8 secs

     total energy              =   -1546.25938023 Ry
     estimated scf accuracy    <       0.00001197 Ry

     total magnetization       =    -0.02 Bohr mag/cell
     absolute magnetization    =     0.16 Bohr mag/cell

     iteration # 57     ecut=    90.00 Ry     beta= 0.20
     CG style diagonalization
     ethr =  2.71E-09,  avg # of iterations =  3.0

     negative rho (up, down):  1.629E-03 1.673E-03

     total cpu time spent up to now is     1599.0 secs

     total energy              =   -1546.25938058 Ry
     estimated scf accuracy    <       0.00000960 Ry

     total magnetization       =    -0.02 Bohr mag/cell
     absolute magnetization    =     0.17 Bohr mag/cell

     iteration # 58     ecut=    90.00 Ry     beta= 0.20
     CG style diagonalization
     c_bands:  1 eigenvalues not converged
     ethr =  2.71E-09,  avg # of iterations =  3.0

     negative rho (up, down):  1.632E-03 1.670E-03

     total cpu time spent up to now is     1625.1 secs

     total energy              =   -1546.25937617 Ry
     estimated scf accuracy    <       0.00000703 Ry

     total magnetization       =    -0.02 Bohr mag/cell
     absolute magnetization    =     0.17 Bohr mag/cell

     iteration # 59     ecut=    90.00 Ry     beta= 0.20
     CG style diagonalization
     c_bands:  1 eigenvalues not converged
     c_bands:  1 eigenvalues not converged
     ethr =  2.71E-09,  avg # of iterations =  3.0

     negative rho (up, down):  1.638E-03 1.664E-03

     total cpu time spent up to now is     1651.5 secs

     total energy              =   -1546.25936553 Ry
     estimated scf accuracy    <       0.00001205 Ry

     total magnetization       =    -0.02 Bohr mag/cell
     absolute magnetization    =     0.15 Bohr mag/cell

     iteration # 60     ecut=    90.00 Ry     beta= 0.20
     CG style diagonalization
     c_bands:  1 eigenvalues not converged
     ethr =  2.71E-09,  avg # of iterations =  3.7

     negative rho (up, down):  1.628E-03 1.674E-03

     total cpu time spent up to now is     1683.3 secs

     total energy              =   -1546.25936770 Ry
     estimated scf accuracy    <       0.00001908 Ry

     total magnetization       =    -0.01 Bohr mag/cell
     absolute magnetization    =     0.10 Bohr mag/cell

     iteration # 61     ecut=    90.00 Ry     beta= 0.20
     CG style diagonalization
     ethr =  2.71E-09,  avg # of iterations =  3.9

     negative rho (up, down):  1.633E-03 1.669E-03

     total cpu time spent up to now is     1717.1 secs

     total energy              =   -1546.25937174 Ry
     estimated scf accuracy    <       0.00001636 Ry

     total magnetization       =    -0.03 Bohr mag/cell
     absolute magnetization    =     0.18 Bohr mag/cell

     iteration # 62     ecut=    90.00 Ry     beta= 0.20
     CG style diagonalization
     ethr =  2.71E-09,  avg # of iterations =  3.6

     negative rho (up, down):  1.650E-03 1.651E-03

     total cpu time spent up to now is     1747.9 secs

     total energy              =   -1546.25931947 Ry
     estimated scf accuracy    <       0.00002192 Ry

     total magnetization       =    -0.02 Bohr mag/cell
     absolute magnetization    =     0.14 Bohr mag/cell

     iteration # 63     ecut=    90.00 Ry     beta= 0.20
     CG style diagonalization
     c_bands:  1 eigenvalues not converged
     ethr =  2.71E-09,  avg # of iterations =  4.6

     negative rho (up, down):  1.642E-03 1.659E-03

     total cpu time spent up to now is     1787.2 secs

     total energy              =   -1546.25935784 Ry
     estimated scf accuracy    <       0.00000425 Ry

     total magnetization       =     0.01 Bohr mag/cell
     absolute magnetization    =     0.02 Bohr mag/cell

     iteration # 64     ecut=    90.00 Ry     beta= 0.20
     CG style diagonalization
     c_bands:  1 eigenvalues not converged
     ethr =  2.71E-09,  avg # of iterations =  3.8

     negative rho (up, down):  1.647E-03 1.655E-03

     total cpu time spent up to now is     1819.6 secs

     total energy              =   -1546.25936246 Ry
     estimated scf accuracy    <       0.00001116 Ry

     total magnetization       =    -0.00 Bohr mag/cell
     absolute magnetization    =     0.05 Bohr mag/cell

     iteration # 65     ecut=    90.00 Ry     beta= 0.20
     CG style diagonalization
     ethr =  2.71E-09,  avg # of iterations =  3.5

     negative rho (up, down):  1.649E-03 1.653E-03

     total cpu time spent up to now is     1849.4 secs

     total energy              =   -1546.25936503 Ry
     estimated scf accuracy    <       0.00000312 Ry

     total magnetization       =     0.00 Bohr mag/cell
     absolute magnetization    =     0.02 Bohr mag/cell

     iteration # 66     ecut=    90.00 Ry     beta= 0.20
     CG style diagonalization
     ethr =  2.69E-09,  avg # of iterations =  3.2

     negative rho (up, down):  1.648E-03 1.653E-03

     total cpu time spent up to now is     1876.8 secs

     total energy              =   -1546.25936578 Ry
     estimated scf accuracy    <       0.00000048 Ry

     total magnetization       =     0.01 Bohr mag/cell
     absolute magnetization    =     0.02 Bohr mag/cell

     iteration # 67     ecut=    90.00 Ry     beta= 0.20
     CG style diagonalization
     ethr =  4.12E-10,  avg # of iterations =  3.3

     negative rho (up, down):  1.649E-03 1.653E-03

     total cpu time spent up to now is     1905.4 secs

     total energy              =   -1546.25936594 Ry
     estimated scf accuracy    <       0.00000042 Ry

     total magnetization       =     0.01 Bohr mag/cell
     absolute magnetization    =     0.02 Bohr mag/cell

     iteration # 68     ecut=    90.00 Ry     beta= 0.20
     CG style diagonalization
     ethr =  3.65E-10,  avg # of iterations =  3.1

     negative rho (up, down):  1.649E-03 1.653E-03

     total cpu time spent up to now is     1932.5 secs

     total energy              =   -1546.25936600 Ry
     estimated scf accuracy    <       0.00000048 Ry

     total magnetization       =     0.01 Bohr mag/cell
     absolute magnetization    =     0.02 Bohr mag/cell

     iteration # 69     ecut=    90.00 Ry     beta= 0.20
     CG style diagonalization
     ethr =  3.65E-10,  avg # of iterations =  3.0

     negative rho (up, down):  1.649E-03 1.653E-03

     total cpu time spent up to now is     1958.7 secs

     total energy              =   -1546.25936624 Ry
     estimated scf accuracy    <       0.00000026 Ry

     total magnetization       =     0.01 Bohr mag/cell
     absolute magnetization    =     0.02 Bohr mag/cell

     iteration # 70     ecut=    90.00 Ry     beta= 0.20
     CG style diagonalization
     ethr =  2.21E-10,  avg # of iterations =  3.3

     negative rho (up, down):  1.649E-03 1.653E-03

     total cpu time spent up to now is     1987.2 secs

     total energy              =   -1546.25936622 Ry
     estimated scf accuracy    <       0.00000050 Ry

     total magnetization       =     0.01 Bohr mag/cell
     absolute magnetization    =     0.02 Bohr mag/cell

     iteration # 71     ecut=    90.00 Ry     beta= 0.20
     CG style diagonalization
     ethr =  2.21E-10,  avg # of iterations =  3.1

     negative rho (up, down):  1.649E-03 1.653E-03

     total cpu time spent up to now is     2014.1 secs

     total energy              =   -1546.25936619 Ry
     estimated scf accuracy    <       0.00000061 Ry

     total magnetization       =     0.01 Bohr mag/cell
     absolute magnetization    =     0.02 Bohr mag/cell

     iteration # 72     ecut=    90.00 Ry     beta= 0.20
     CG style diagonalization
     ethr =  2.21E-10,  avg # of iterations =  3.0

     negative rho (up, down):  1.649E-03 1.653E-03

     total cpu time spent up to now is     2040.3 secs

     total energy              =   -1546.25936635 Ry
     estimated scf accuracy    <       0.00000038 Ry

     total magnetization       =     0.01 Bohr mag/cell
     absolute magnetization    =     0.02 Bohr mag/cell

     iteration # 73     ecut=    90.00 Ry     beta= 0.20
     CG style diagonalization
     c_bands:  1 eigenvalues not converged
     ethr =  2.21E-10,  avg # of iterations =  3.0

     negative rho (up, down):  1.649E-03 1.653E-03

     total cpu time spent up to now is     2066.6 secs

     total energy              =   -1546.25936643 Ry
     estimated scf accuracy    <       0.00000027 Ry

     total magnetization       =     0.00 Bohr mag/cell
     absolute magnetization    =     0.02 Bohr mag/cell

     iteration # 74     ecut=    90.00 Ry     beta= 0.20
     CG style diagonalization
     ethr =  2.21E-10,  avg # of iterations =  3.0

     negative rho (up, down):  1.649E-03 1.653E-03

     total cpu time spent up to now is     2092.9 secs

     total energy              =   -1546.25936637 Ry
     estimated scf accuracy    <       0.00000022 Ry

     total magnetization       =     0.00 Bohr mag/cell
     absolute magnetization    =     0.02 Bohr mag/cell

     iteration # 75     ecut=    90.00 Ry     beta= 0.20
     CG style diagonalization
     ethr =  1.93E-10,  avg # of iterations =  3.0

     negative rho (up, down):  1.649E-03 1.653E-03

     total cpu time spent up to now is     2119.0 secs

     total energy              =   -1546.25936648 Ry
     estimated scf accuracy    <       0.00000021 Ry

     total magnetization       =     0.00 Bohr mag/cell
     absolute magnetization    =     0.02 Bohr mag/cell

     iteration # 76     ecut=    90.00 Ry     beta= 0.20
     CG style diagonalization
     ethr =  1.83E-10,  avg # of iterations =  3.2

     negative rho (up, down):  1.649E-03 1.653E-03

     total cpu time spent up to now is     2146.8 secs

     total energy              =   -1546.25936652 Ry
     estimated scf accuracy    <       0.00000007 Ry

     total magnetization       =     0.00 Bohr mag/cell
     absolute magnetization    =     0.02 Bohr mag/cell

     iteration # 77     ecut=    90.00 Ry     beta= 0.20
     CG style diagonalization
     ethr =  6.44E-11,  avg # of iterations =  3.4

     negative rho (up, down):  1.649E-03 1.653E-03

     total cpu time spent up to now is     2176.0 secs

     total energy              =   -1546.25936656 Ry
     estimated scf accuracy    <       0.00000025 Ry

     total magnetization       =     0.00 Bohr mag/cell
     absolute magnetization    =     0.02 Bohr mag/cell

     iteration # 78     ecut=    90.00 Ry     beta= 0.20
     CG style diagonalization
     ethr =  6.44E-11,  avg # of iterations =  3.3

     negative rho (up, down):  1.650E-03 1.653E-03

     total cpu time spent up to now is     2204.5 secs

     total energy              =   -1546.25936659 Ry
     estimated scf accuracy    <       0.00000020 Ry

     total magnetization       =     0.00 Bohr mag/cell
     absolute magnetization    =     0.02 Bohr mag/cell

     iteration # 79     ecut=    90.00 Ry     beta= 0.20
     CG style diagonalization
     ethr =  6.44E-11,  avg # of iterations =  3.0

     negative rho (up, down):  1.650E-03 1.653E-03

     total cpu time spent up to now is     2230.9 secs

     total energy              =   -1546.25936660 Ry
     estimated scf accuracy    <       0.00000005 Ry

     total magnetization       =     0.00 Bohr mag/cell
     absolute magnetization    =     0.02 Bohr mag/cell

     iteration # 80     ecut=    90.00 Ry     beta= 0.20
     CG style diagonalization
     ethr =  4.62E-11,  avg # of iterations =  3.0

     negative rho (up, down):  1.650E-03 1.653E-03

     total cpu time spent up to now is     2257.3 secs

     total energy              =   -1546.25936662 Ry
     estimated scf accuracy    <       0.00000005 Ry

     total magnetization       =     0.00 Bohr mag/cell
     absolute magnetization    =     0.02 Bohr mag/cell

     iteration # 81     ecut=    90.00 Ry     beta= 0.20
     CG style diagonalization
     ethr =  4.34E-11,  avg # of iterations =  3.1

     negative rho (up, down):  1.650E-03 1.653E-03

     total cpu time spent up to now is     2284.3 secs

     total energy              =   -1546.25936663 Ry
     estimated scf accuracy    <       0.00000011 Ry

     total magnetization       =     0.00 Bohr mag/cell
     absolute magnetization    =     0.02 Bohr mag/cell

     iteration # 82     ecut=    90.00 Ry     beta= 0.20
     CG style diagonalization
     ethr =  4.34E-11,  avg # of iterations =  3.0

     negative rho (up, down):  1.650E-03 1.653E-03

     total cpu time spent up to now is     2310.4 secs

     total energy              =   -1546.25936664 Ry
     estimated scf accuracy    <       0.00000004 Ry

     total magnetization       =     0.00 Bohr mag/cell
     absolute magnetization    =     0.02 Bohr mag/cell

     iteration # 83     ecut=    90.00 Ry     beta= 0.20
     CG style diagonalization
     ethr =  3.64E-11,  avg # of iterations =  3.0

     negative rho (up, down):  1.650E-03 1.653E-03

     total cpu time spent up to now is     2336.8 secs

     total energy              =   -1546.25936664 Ry
     estimated scf accuracy    <       0.00000005 Ry

     total magnetization       =     0.00 Bohr mag/cell
     absolute magnetization    =     0.02 Bohr mag/cell

     iteration # 84     ecut=    90.00 Ry     beta= 0.20
     CG style diagonalization
     ethr =  3.64E-11,  avg # of iterations =  3.0

     negative rho (up, down):  1.650E-03 1.653E-03

     total cpu time spent up to now is     2362.9 secs

     total energy              =   -1546.25936661 Ry
     estimated scf accuracy    <       0.00000004 Ry

     total magnetization       =     0.00 Bohr mag/cell
     absolute magnetization    =     0.02 Bohr mag/cell

     iteration # 85     ecut=    90.00 Ry     beta= 0.20
     CG style diagonalization
     ethr =  3.64E-11,  avg # of iterations =  3.0

     negative rho (up, down):  1.650E-03 1.653E-03

     total cpu time spent up to now is     2388.9 secs

     total energy              =   -1546.25936661 Ry
     estimated scf accuracy    <       0.00000006 Ry

     total magnetization       =     0.00 Bohr mag/cell
     absolute magnetization    =     0.02 Bohr mag/cell

     iteration # 86     ecut=    90.00 Ry     beta= 0.20
     CG style diagonalization
     ethr =  3.64E-11,  avg # of iterations =  3.0

     negative rho (up, down):  1.650E-03 1.653E-03

     total cpu time spent up to now is     2414.8 secs

     total energy              =   -1546.25936665 Ry
     estimated scf accuracy    <       0.00000006 Ry

     total magnetization       =     0.00 Bohr mag/cell
     absolute magnetization    =     0.02 Bohr mag/cell

     iteration # 87     ecut=    90.00 Ry     beta= 0.20
     CG style diagonalization
     ethr =  3.64E-11,  avg # of iterations =  3.0

     negative rho (up, down):  1.650E-03 1.653E-03

     total cpu time spent up to now is     2441.0 secs

     total energy              =   -1546.25936665 Ry
     estimated scf accuracy    <       0.00000006 Ry

     total magnetization       =     0.00 Bohr mag/cell
     absolute magnetization    =     0.02 Bohr mag/cell

     iteration # 88     ecut=    90.00 Ry     beta= 0.20
     CG style diagonalization
     ethr =  3.64E-11,  avg # of iterations =  3.0

     negative rho (up, down):  1.650E-03 1.653E-03

     total cpu time spent up to now is     2467.0 secs

     total energy              =   -1546.25936666 Ry
     estimated scf accuracy    <       0.00000006 Ry

     total magnetization       =     0.00 Bohr mag/cell
     absolute magnetization    =     0.02 Bohr mag/cell

     iteration # 89     ecut=    90.00 Ry     beta= 0.20
     CG style diagonalization
     ethr =  3.64E-11,  avg # of iterations =  3.0

     negative rho (up, down):  1.650E-03 1.653E-03

     total cpu time spent up to now is     2493.0 secs

     total energy              =   -1546.25936666 Ry
     estimated scf accuracy    <       0.00000006 Ry

     total magnetization       =     0.00 Bohr mag/cell
     absolute magnetization    =     0.02 Bohr mag/cell

     iteration # 90     ecut=    90.00 Ry     beta= 0.20
     CG style diagonalization
     ethr =  3.64E-11,  avg # of iterations =  3.0

     negative rho (up, down):  1.650E-03 1.653E-03

     total cpu time spent up to now is     2519.0 secs

     total energy              =   -1546.25936664 Ry
     estimated scf accuracy    <       0.00000007 Ry

     total magnetization       =     0.00 Bohr mag/cell
     absolute magnetization    =     0.02 Bohr mag/cell

     iteration # 91     ecut=    90.00 Ry     beta= 0.20
     CG style diagonalization
     c_bands:  1 eigenvalues not converged
     ethr =  3.64E-11,  avg # of iterations =  3.0

     negative rho (up, down):  1.650E-03 1.653E-03

     total cpu time spent up to now is     2545.1 secs

     total energy              =   -1546.25936665 Ry
     estimated scf accuracy    <       0.00000007 Ry

     total magnetization       =     0.00 Bohr mag/cell
     absolute magnetization    =     0.02 Bohr mag/cell

     iteration # 92     ecut=    90.00 Ry     beta= 0.20
     CG style diagonalization
     ethr =  3.64E-11,  avg # of iterations =  3.0

     negative rho (up, down):  1.650E-03 1.653E-03

     total cpu time spent up to now is     2571.3 secs

     total energy              =   -1546.25936667 Ry
     estimated scf accuracy    <       0.00000005 Ry

     total magnetization       =     0.00 Bohr mag/cell
     absolute magnetization    =     0.02 Bohr mag/cell

     iteration # 93     ecut=    90.00 Ry     beta= 0.20
     CG style diagonalization
     ethr =  3.64E-11,  avg # of iterations =  3.0

     negative rho (up, down):  1.650E-03 1.653E-03

     total cpu time spent up to now is     2597.4 secs

     total energy              =   -1546.25936667 Ry
     estimated scf accuracy    <       0.00000007 Ry

     total magnetization       =     0.00 Bohr mag/cell
     absolute magnetization    =     0.02 Bohr mag/cell

     iteration # 94     ecut=    90.00 Ry     beta= 0.20
     CG style diagonalization
     ethr =  3.64E-11,  avg # of iterations =  3.0

     negative rho (up, down):  1.649E-03 1.653E-03

     total cpu time spent up to now is     2623.4 secs

     total energy              =   -1546.25936669 Ry
     estimated scf accuracy    <       0.00000004 Ry

     total magnetization       =     0.00 Bohr mag/cell
     absolute magnetization    =     0.02 Bohr mag/cell

     iteration # 95     ecut=    90.00 Ry     beta= 0.20
     CG style diagonalization
     ethr =  3.64E-11,  avg # of iterations =  3.1

     negative rho (up, down):  1.650E-03 1.653E-03

     total cpu time spent up to now is     2649.8 secs

     total energy              =   -1546.25936668 Ry
     estimated scf accuracy    <       0.00000005 Ry

     total magnetization       =     0.00 Bohr mag/cell
     absolute magnetization    =     0.02 Bohr mag/cell

     iteration # 96     ecut=    90.00 Ry     beta= 0.20
     CG style diagonalization
     ethr =  3.64E-11,  avg # of iterations =  3.0

     negative rho (up, down):  1.650E-03 1.653E-03

     total cpu time spent up to now is     2675.8 secs

     total energy              =   -1546.25936667 Ry
     estimated scf accuracy    <       0.00000005 Ry

     total magnetization       =     0.00 Bohr mag/cell
     absolute magnetization    =     0.02 Bohr mag/cell

     iteration # 97     ecut=    90.00 Ry     beta= 0.20
     CG style diagonalization
     ethr =  3.64E-11,  avg # of iterations =  3.0

     negative rho (up, down):  1.649E-03 1.653E-03

     total cpu time spent up to now is     2701.8 secs

     total energy              =   -1546.25936669 Ry
     estimated scf accuracy    <       0.00000006 Ry

     total magnetization       =     0.00 Bohr mag/cell
     absolute magnetization    =     0.02 Bohr mag/cell

     iteration # 98     ecut=    90.00 Ry     beta= 0.20
     CG style diagonalization
     ethr =  3.64E-11,  avg # of iterations =  3.0

     negative rho (up, down):  1.649E-03 1.653E-03

     total cpu time spent up to now is     2727.8 secs

     total energy              =   -1546.25936670 Ry
     estimated scf accuracy    <       0.00000005 Ry

     total magnetization       =     0.00 Bohr mag/cell
     absolute magnetization    =     0.02 Bohr mag/cell

     iteration # 99     ecut=    90.00 Ry     beta= 0.20
     CG style diagonalization
     ethr =  3.64E-11,  avg # of iterations =  3.0

     negative rho (up, down):  1.649E-03 1.653E-03

     total cpu time spent up to now is     2753.7 secs

     total energy              =   -1546.25936670 Ry
     estimated scf accuracy    <       0.00000006 Ry

     total magnetization       =     0.00 Bohr mag/cell
     absolute magnetization    =     0.02 Bohr mag/cell

     iteration #100     ecut=    90.00 Ry     beta= 0.20
     CG style diagonalization
     ethr =  3.64E-11,  avg # of iterations =  3.0

     negative rho (up, down):  1.649E-03 1.653E-03

     total cpu time spent up to now is     2779.7 secs

     total energy              =   -1546.25936671 Ry
     estimated scf accuracy    <       0.00000005 Ry

     total magnetization       =     0.00 Bohr mag/cell
     absolute magnetization    =     0.02 Bohr mag/cell

     iteration #101     ecut=    90.00 Ry     beta= 0.20
     CG style diagonalization
     ethr =  3.64E-11,  avg # of iterations =  3.0

     negative rho (up, down):  1.649E-03 1.653E-03

     total cpu time spent up to now is     2805.7 secs

     total energy              =   -1546.25936673 Ry
     estimated scf accuracy    <       0.00000005 Ry

     total magnetization       =     0.00 Bohr mag/cell
     absolute magnetization    =     0.02 Bohr mag/cell

     iteration #102     ecut=    90.00 Ry     beta= 0.20
     CG style diagonalization
     ethr =  3.64E-11,  avg # of iterations =  3.1

     negative rho (up, down):  1.649E-03 1.653E-03

     total cpu time spent up to now is     2832.2 secs

     total energy              =   -1546.25936672 Ry
     estimated scf accuracy    <       0.00000008 Ry

     total magnetization       =     0.00 Bohr mag/cell
     absolute magnetization    =     0.02 Bohr mag/cell

     iteration #103     ecut=    90.00 Ry     beta= 0.20
     CG style diagonalization
     ethr =  3.64E-11,  avg # of iterations =  3.0

     negative rho (up, down):  1.649E-03 1.653E-03

     total cpu time spent up to now is     2858.3 secs

     total energy              =   -1546.25936673 Ry
     estimated scf accuracy    <       0.00000005 Ry

     total magnetization       =     0.00 Bohr mag/cell
     absolute magnetization    =     0.02 Bohr mag/cell

     iteration #104     ecut=    90.00 Ry     beta= 0.20
     CG style diagonalization
     ethr =  3.64E-11,  avg # of iterations =  3.0

     negative rho (up, down):  1.649E-03 1.653E-03

     total cpu time spent up to now is     2884.3 secs

     total energy              =   -1546.25936673 Ry
     estimated scf accuracy    <       0.00000006 Ry

     total magnetization       =     0.00 Bohr mag/cell
     absolute magnetization    =     0.02 Bohr mag/cell

     iteration #105     ecut=    90.00 Ry     beta= 0.20
     CG style diagonalization
     ethr =  3.64E-11,  avg # of iterations =  3.0

     negative rho (up, down):  1.649E-03 1.653E-03

     total cpu time spent up to now is     2910.3 secs

     total energy              =   -1546.25936674 Ry
     estimated scf accuracy    <       0.00000006 Ry

     total magnetization       =     0.00 Bohr mag/cell
     absolute magnetization    =     0.02 Bohr mag/cell

     iteration #106     ecut=    90.00 Ry     beta= 0.20
     CG style diagonalization
     ethr =  3.64E-11,  avg # of iterations =  3.0

     negative rho (up, down):  1.649E-03 1.653E-03

     total cpu time spent up to now is     2936.3 secs

     total energy              =   -1546.25936675 Ry
     estimated scf accuracy    <       0.00000005 Ry

     total magnetization       =     0.00 Bohr mag/cell
     absolute magnetization    =     0.02 Bohr mag/cell

     iteration #107     ecut=    90.00 Ry     beta= 0.20
     CG style diagonalization
     ethr =  3.64E-11,  avg # of iterations =  3.0

     negative rho (up, down):  1.649E-03 1.653E-03

     total cpu time spent up to now is     2962.5 secs

     total energy              =   -1546.25936675 Ry
     estimated scf accuracy    <       0.00000010 Ry

     total magnetization       =     0.00 Bohr mag/cell
     absolute magnetization    =     0.02 Bohr mag/cell

     iteration #108     ecut=    90.00 Ry     beta= 0.20
     CG style diagonalization
     ethr =  3.64E-11,  avg # of iterations =  3.0

     negative rho (up, down):  1.649E-03 1.653E-03

     total cpu time spent up to now is     2988.5 secs

     total energy              =   -1546.25936675 Ry
     estimated scf accuracy    <       0.00000006 Ry

     total magnetization       =     0.00 Bohr mag/cell
     absolute magnetization    =     0.03 Bohr mag/cell

     iteration #109     ecut=    90.00 Ry     beta= 0.20
     CG style diagonalization
     ethr =  3.64E-11,  avg # of iterations =  3.0

     negative rho (up, down):  1.649E-03 1.653E-03

     total cpu time spent up to now is     3014.5 secs

     total energy              =   -1546.25936676 Ry
     estimated scf accuracy    <       0.00000006 Ry

     total magnetization       =     0.00 Bohr mag/cell
     absolute magnetization    =     0.03 Bohr mag/cell

     iteration #110     ecut=    90.00 Ry     beta= 0.20
     CG style diagonalization
     ethr =  3.64E-11,  avg # of iterations =  3.0

     negative rho (up, down):  1.649E-03 1.653E-03

     total cpu time spent up to now is     3040.5 secs

     total energy              =   -1546.25936676 Ry
     estimated scf accuracy    <       0.00000006 Ry

     total magnetization       =     0.00 Bohr mag/cell
     absolute magnetization    =     0.03 Bohr mag/cell

     iteration #111     ecut=    90.00 Ry     beta= 0.20
     CG style diagonalization
     ethr =  3.64E-11,  avg # of iterations =  3.0

     negative rho (up, down):  1.649E-03 1.653E-03

     total cpu time spent up to now is     3066.5 secs

     total energy              =   -1546.25936677 Ry
     estimated scf accuracy    <       0.00000006 Ry

     total magnetization       =     0.00 Bohr mag/cell
     absolute magnetization    =     0.03 Bohr mag/cell

     iteration #112     ecut=    90.00 Ry     beta= 0.20
     CG style diagonalization
     ethr =  3.64E-11,  avg # of iterations =  3.0

     negative rho (up, down):  1.649E-03 1.653E-03

     total cpu time spent up to now is     3092.6 secs

     total energy              =   -1546.25936678 Ry
     estimated scf accuracy    <       0.00000008 Ry

     total magnetization       =     0.00 Bohr mag/cell
     absolute magnetization    =     0.03 Bohr mag/cell

     iteration #113     ecut=    90.00 Ry     beta= 0.20
     CG style diagonalization
     ethr =  3.64E-11,  avg # of iterations =  3.0

     negative rho (up, down):  1.649E-03 1.653E-03

     total cpu time spent up to now is     3118.6 secs

     total energy              =   -1546.25936674 Ry
     estimated scf accuracy    <       0.00000006 Ry

     total magnetization       =     0.00 Bohr mag/cell
     absolute magnetization    =     0.03 Bohr mag/cell

     iteration #114     ecut=    90.00 Ry     beta= 0.20
     CG style diagonalization
     ethr =  3.64E-11,  avg # of iterations =  3.0

     negative rho (up, down):  1.650E-03 1.653E-03

     total cpu time spent up to now is     3144.6 secs

     total energy              =   -1546.25936672 Ry
     estimated scf accuracy    <       0.00000012 Ry

     total magnetization       =     0.00 Bohr mag/cell
     absolute magnetization    =     0.03 Bohr mag/cell

     iteration #115     ecut=    90.00 Ry     beta= 0.20
     CG style diagonalization
     ethr =  3.64E-11,  avg # of iterations =  3.0

     negative rho (up, down):  1.649E-03 1.653E-03

     total cpu time spent up to now is     3170.9 secs

     total energy              =   -1546.25936676 Ry
     estimated scf accuracy    <       0.00000011 Ry

     total magnetization       =     0.00 Bohr mag/cell
     absolute magnetization    =     0.02 Bohr mag/cell

     iteration #116     ecut=    90.00 Ry     beta= 0.20
     CG style diagonalization
     ethr =  3.64E-11,  avg # of iterations =  3.0

     negative rho (up, down):  1.649E-03 1.653E-03

     total cpu time spent up to now is     3197.1 secs

     total energy              =   -1546.25936679 Ry
     estimated scf accuracy    <       0.00000009 Ry

     total magnetization       =     0.00 Bohr mag/cell
     absolute magnetization    =     0.03 Bohr mag/cell

     iteration #117     ecut=    90.00 Ry     beta= 0.20
     CG style diagonalization
     ethr =  3.64E-11,  avg # of iterations =  3.0

     negative rho (up, down):  1.649E-03 1.653E-03

     total cpu time spent up to now is     3223.4 secs

     total energy              =   -1546.25936679 Ry
     estimated scf accuracy    <       0.00000006 Ry

     total magnetization       =     0.00 Bohr mag/cell
     absolute magnetization    =     0.03 Bohr mag/cell

     iteration #118     ecut=    90.00 Ry     beta= 0.20
     CG style diagonalization
     ethr =  3.64E-11,  avg # of iterations =  3.0

     negative rho (up, down):  1.649E-03 1.653E-03

     total cpu time spent up to now is     3249.5 secs

     total energy              =   -1546.25936681 Ry
     estimated scf accuracy    <       0.00000006 Ry

     total magnetization       =     0.00 Bohr mag/cell
     absolute magnetization    =     0.03 Bohr mag/cell

     iteration #119     ecut=    90.00 Ry     beta= 0.20
     CG style diagonalization
     ethr =  3.64E-11,  avg # of iterations =  3.0

     negative rho (up, down):  1.649E-03 1.653E-03

     total cpu time spent up to now is     3275.8 secs

     total energy              =   -1546.25936681 Ry
     estimated scf accuracy    <       0.00000009 Ry

     total magnetization       =     0.00 Bohr mag/cell
     absolute magnetization    =     0.03 Bohr mag/cell

     iteration #120     ecut=    90.00 Ry     beta= 0.20
     CG style diagonalization
     c_bands:  1 eigenvalues not converged
     ethr =  3.64E-11,  avg # of iterations =  3.0

     negative rho (up, down):  1.649E-03 1.653E-03

     total cpu time spent up to now is     3301.8 secs

     total energy              =   -1546.25936679 Ry
     estimated scf accuracy    <       0.00000006 Ry

     total magnetization       =     0.00 Bohr mag/cell
     absolute magnetization    =     0.03 Bohr mag/cell

     iteration #121     ecut=    90.00 Ry     beta= 0.20
     CG style diagonalization
     c_bands:  1 eigenvalues not converged
     ethr =  3.64E-11,  avg # of iterations =  3.0

     negative rho (up, down):  1.650E-03 1.653E-03

     total cpu time spent up to now is     3327.8 secs

     total energy              =   -1546.25936652 Ry
     estimated scf accuracy    <       0.00000009 Ry

     total magnetization       =     0.00 Bohr mag/cell
     absolute magnetization    =     0.03 Bohr mag/cell

     iteration #122     ecut=    90.00 Ry     beta= 0.20
     CG style diagonalization
     ethr =  3.64E-11,  avg # of iterations =  3.9

     negative rho (up, down):  1.650E-03 1.653E-03

     total cpu time spent up to now is     3361.1 secs

     total energy              =   -1546.25936668 Ry
     estimated scf accuracy    <       0.00000008 Ry

     total magnetization       =     0.00 Bohr mag/cell
     absolute magnetization    =     0.02 Bohr mag/cell

     iteration #123     ecut=    90.00 Ry     beta= 0.20
     CG style diagonalization
     ethr =  3.64E-11,  avg # of iterations =  3.2

     negative rho (up, down):  1.650E-03 1.653E-03

     total cpu time spent up to now is     3388.3 secs

     total energy              =   -1546.25936671 Ry
     estimated scf accuracy    <       0.00000008 Ry

     total magnetization       =     0.00 Bohr mag/cell
     absolute magnetization    =     0.02 Bohr mag/cell

     iteration #124     ecut=    90.00 Ry     beta= 0.20
     CG style diagonalization
     ethr =  3.64E-11,  avg # of iterations =  3.3

     negative rho (up, down):  1.650E-03 1.652E-03

     total cpu time spent up to now is     3416.5 secs

     total energy              =   -1546.25936657 Ry
     estimated scf accuracy    <       0.00000018 Ry

     total magnetization       =     0.00 Bohr mag/cell
     absolute magnetization    =     0.02 Bohr mag/cell

     iteration #125     ecut=    90.00 Ry     beta= 0.20
     CG style diagonalization
     ethr =  3.64E-11,  avg # of iterations =  3.6

     negative rho (up, down):  1.650E-03 1.652E-03

     total cpu time spent up to now is     3447.5 secs

     total energy              =   -1546.25936663 Ry
     estimated scf accuracy    <       0.00000017 Ry

     total magnetization       =     0.00 Bohr mag/cell
     absolute magnetization    =     0.02 Bohr mag/cell

     iteration #126     ecut=    90.00 Ry     beta= 0.20
     CG style diagonalization
     ethr =  3.64E-11,  avg # of iterations =  3.1

     negative rho (up, down):  1.650E-03 1.653E-03

     total cpu time spent up to now is     3474.2 secs

     total energy              =   -1546.25936667 Ry
     estimated scf accuracy    <       0.00000006 Ry

     total magnetization       =     0.00 Bohr mag/cell
     absolute magnetization    =     0.02 Bohr mag/cell

     iteration #127     ecut=    90.00 Ry     beta= 0.20
     CG style diagonalization
     ethr =  3.64E-11,  avg # of iterations =  3.2

     negative rho (up, down):  1.650E-03 1.653E-03

     total cpu time spent up to now is     3502.1 secs

     total energy              =   -1546.25936666 Ry
     estimated scf accuracy    <       0.00000006 Ry

     total magnetization       =     0.00 Bohr mag/cell
     absolute magnetization    =     0.02 Bohr mag/cell

     iteration #128     ecut=    90.00 Ry     beta= 0.20
     CG style diagonalization
     ethr =  3.64E-11,  avg # of iterations =  3.0

     negative rho (up, down):  1.650E-03 1.653E-03

     total cpu time spent up to now is     3528.3 secs

     total energy              =   -1546.25936667 Ry
     estimated scf accuracy    <       0.00000005 Ry

     total magnetization       =     0.00 Bohr mag/cell
     absolute magnetization    =     0.02 Bohr mag/cell

     iteration #129     ecut=    90.00 Ry     beta= 0.20
     CG style diagonalization
     ethr =  3.64E-11,  avg # of iterations =  3.0

     negative rho (up, down):  1.650E-03 1.653E-03

     total cpu time spent up to now is     3554.3 secs

     total energy              =   -1546.25936668 Ry
     estimated scf accuracy    <       0.00000004 Ry

     total magnetization       =     0.00 Bohr mag/cell
     absolute magnetization    =     0.02 Bohr mag/cell

     iteration #130     ecut=    90.00 Ry     beta= 0.20
     CG style diagonalization
     ethr =  3.64E-11,  avg # of iterations =  3.0

     negative rho (up, down):  1.650E-03 1.653E-03

     total cpu time spent up to now is     3580.7 secs

     total energy              =   -1546.25936668 Ry
     estimated scf accuracy    <       0.00000005 Ry

     total magnetization       =     0.00 Bohr mag/cell
     absolute magnetization    =     0.02 Bohr mag/cell

     iteration #131     ecut=    90.00 Ry     beta= 0.20
     CG style diagonalization
     ethr =  3.64E-11,  avg # of iterations =  3.0

     negative rho (up, down):  1.650E-03 1.653E-03

     total cpu time spent up to now is     3606.7 secs

     total energy              =   -1546.25936669 Ry
     estimated scf accuracy    <       0.00000004 Ry

     total magnetization       =     0.00 Bohr mag/cell
     absolute magnetization    =     0.02 Bohr mag/cell

     iteration #132     ecut=    90.00 Ry     beta= 0.20
     CG style diagonalization
     ethr =  3.62E-11,  avg # of iterations =  3.0

     negative rho (up, down):  1.650E-03 1.653E-03

     total cpu time spent up to now is     3632.7 secs

     total energy              =   -1546.25936670 Ry
     estimated scf accuracy    <       0.00000005 Ry

     total magnetization       =     0.00 Bohr mag/cell
     absolute magnetization    =     0.02 Bohr mag/cell

     iteration #133     ecut=    90.00 Ry     beta= 0.20
     CG style diagonalization
     ethr =  3.62E-11,  avg # of iterations =  3.0

     negative rho (up, down):  1.650E-03 1.653E-03

     total cpu time spent up to now is     3658.6 secs

     total energy              =   -1546.25936672 Ry
     estimated scf accuracy    <       0.00000004 Ry

     total magnetization       =     0.00 Bohr mag/cell
     absolute magnetization    =     0.02 Bohr mag/cell

     iteration #134     ecut=    90.00 Ry     beta= 0.20
     CG style diagonalization
     ethr =  3.44E-11,  avg # of iterations =  3.1

     negative rho (up, down):  1.650E-03 1.653E-03

     total cpu time spent up to now is     3685.2 secs

     total energy              =   -1546.25936671 Ry
     estimated scf accuracy    <       0.00000005 Ry

     total magnetization       =     0.00 Bohr mag/cell
     absolute magnetization    =     0.02 Bohr mag/cell

     iteration #135     ecut=    90.00 Ry     beta= 0.20
     CG style diagonalization
     ethr =  3.44E-11,  avg # of iterations =  3.0

     negative rho (up, down):  1.650E-03 1.653E-03

     total cpu time spent up to now is     3711.2 secs

     total energy              =   -1546.25936671 Ry
     estimated scf accuracy    <       0.00000004 Ry

     total magnetization       =     0.00 Bohr mag/cell
     absolute magnetization    =     0.02 Bohr mag/cell

     iteration #136     ecut=    90.00 Ry     beta= 0.20
     CG style diagonalization
     ethr =  3.44E-11,  avg # of iterations =  3.0

     negative rho (up, down):  1.650E-03 1.653E-03

     total cpu time spent up to now is     3737.2 secs

     total energy              =   -1546.25936673 Ry
     estimated scf accuracy    <       0.00000005 Ry

     total magnetization       =     0.00 Bohr mag/cell
     absolute magnetization    =     0.02 Bohr mag/cell

     iteration #137     ecut=    90.00 Ry     beta= 0.20
     CG style diagonalization
     ethr =  3.44E-11,  avg # of iterations =  3.1

     negative rho (up, down):  1.650E-03 1.653E-03

     total cpu time spent up to now is     3763.7 secs

     total energy              =   -1546.25936677 Ry
[...]
     internal energy E=F+TS    =   -1546.48342170 Ry

     total magnetization       =    -0.76 Bohr mag/cell
     absolute magnetization    =    20.81 Bohr mag/cell

     convergence has been achieved in  15 iterations

     negative rho (up, down):  0.000E+00 1.187E-02

     Forces acting on atoms (cartesian axes, Ry/au):

     atom    1 type  1   force =    -0.02443746   -0.01033919   -0.01817625
     atom    2 type  2   force =     0.01567591    0.02250422   -0.00093158
     atom    3 type  1   force =     0.00576085   -0.01708330    0.03402854
     atom    4 type  2   force =    -0.01154962    0.00694838   -0.01253157
     atom    5 type  1   force =    -0.01036686    0.00097268   -0.01236967
     atom    6 type  2   force =     0.02001042   -0.01783616   -0.01293624
     atom    7 type  1   force =     0.02238294    0.03201355    0.00316395
     atom    8 type  2   force =    -0.01747617   -0.01718018    0.01975282

     Total force =     0.085341     Total SCF correction =     0.000165


     Computing stress (Cartesian axis) and pressure


     negative rho (up, down):  0.000E+00 1.187E-02
          total   stress  (Ry/bohr**3)                   (kbar)     P=      -35.47
  -0.00025074   0.00002960   0.00004177          -36.89        4.35        6.14
   0.00002960  -0.00023684  -0.00005408            4.35      -34.84       -7.96
   0.00004177  -0.00005408  -0.00023587            6.14       -7.96      -34.70


     Entering Dynamics;  it =   101   time =  0.09676 pico-seconds

  new lattice vectors (alat unit) :
   1.043932466   0.009538854   0.005703824
   0.009538854   1.040146410  -0.002853595
   0.005703824  -0.002853595   1.045985355
  new unit-cell volume =    753.8592 (a.u.)^3
  new positions in cryst coord
Mn      -0.070126767   0.526149949  -0.002305802
Cr       0.505413668   0.047469644   0.435076379
Mn       0.004194687  -0.006025899   0.573240326
Cr       0.426176125   0.437091126  -0.004439851
Mn       0.555799062  -0.063634435  -0.063060944
Cr       0.013635411   0.489304437   0.488781978
Mn       0.508948391   0.545966655   0.495023383
Cr       0.056026449   0.023539550   0.077520622
  new positions in cart coord (alat unit)
Mn      -0.068201893   0.546610632  -0.004313245
Cr       0.530552141   0.052954915   0.457830852
Mn       0.007591152  -0.007863601   0.599642108
Cr       0.449043118   0.458716668  -0.003460467
Mn       0.579249997  -0.060707492  -0.062609057
Cr       0.021689778   0.507683534   0.509940288
Mn       0.539339171   0.571327444   0.519132193
Cr       0.059154534   0.024797794   0.081337828

     Ekin =     0.03139884 Ry    T =  357.8 K  Etot =    -1546.45631618
     new unit-cell volume =    753.85918 a.u.^3 (   111.71041 Ang^3 )
     density =      6.35816 g/cm^3

CELL_PARAMETERS (angstrom)
   4.819001048   0.044033258   0.026329991
   0.044033258   4.801523860  -0.013172767
   0.026329991  -0.013172767   4.828477597

ATOMIC_POSITIONS (angstrom)
Mn           -0.3148335805        2.5232639988       -0.0199108032
Cr            2.4491347937        0.2444504767        2.1134387807
Mn            0.0350422754       -0.0362999548        2.7680678979
Cr            2.0728728393        2.1175278810       -0.0159742064
Mn            2.6739338357       -0.2802379268       -0.2890159295
Cr            0.1001243519        2.3435687291        2.3539863593
Mn            2.4896974789        2.6373617468        2.3964180308
Cr            0.2730691583        0.1144715757        0.3754716811



     Writing output data file ./pwscf.save/
     NEW-OLD atomic charge density approx. for the potential

     Check: negative core charge=   -0.000025

     negative rho (up, down):  0.000E+00 1.187E-02
     extrapolated charge  115.94134, renormalised to  116.00000
     Generating pointlists ...

     total cpu time spent up to now is   154809.1 secs

     Self-consistent Calculation

     iteration #  1     ecut=    90.00 Ry     beta= 0.20
     CG style diagonalization
     ethr =  1.00E-06,  avg # of iterations =  5.5

     negative rho (up, down):  0.000E+00 1.188E-02

     total cpu time spent up to now is   154856.8 secs

     total energy              =   -1546.48878404 Ry
     estimated scf accuracy    <       0.00084070 Ry

     total magnetization       =    -0.74 Bohr mag/cell
     absolute magnetization    =    20.85 Bohr mag/cell

     iteration #  2     ecut=    90.00 Ry     beta= 0.20
     CG style diagonalization
     ethr =  7.25E-07,  avg # of iterations =  4.3

     negative rho (up, down):  0.000E+00 1.187E-02

     total cpu time spent up to now is   154893.4 secs

     total energy              =   -1546.48926225 Ry
     estimated scf accuracy    <       0.00174589 Ry

     total magnetization       =    -0.76 Bohr mag/cell
     absolute magnetization    =    20.81 Bohr mag/cell

     iteration #  3     ecut=    90.00 Ry     beta= 0.20
     CG style diagonalization
     ethr =  7.25E-07,  avg # of iterations =  3.1

     negative rho (up, down):  0.000E+00 1.187E-02

     total cpu time spent up to now is   154920.0 secs

     total energy              =   -1546.48937206 Ry
     estimated scf accuracy    <       0.00018572 Ry

     total magnetization       =    -0.77 Bohr mag/cell
     absolute magnetization    =    20.79 Bohr mag/cell

     iteration #  4     ecut=    90.00 Ry     beta= 0.20
     CG style diagonalization
     ethr =  1.60E-07,  avg # of iterations =  3.1

     negative rho (up, down):  0.000E+00 1.187E-02

     total cpu time spent up to now is   154947.2 secs

     total energy              =   -1546.48935783 Ry
     estimated scf accuracy    <       0.00012079 Ry

     total magnetization       =    -0.76 Bohr mag/cell
     absolute magnetization    =    20.80 Bohr mag/cell

     iteration #  5     ecut=    90.00 Ry     beta= 0.20
     CG style diagonalization
     ethr =  1.04E-07,  avg # of iterations =  3.3

     negative rho (up, down):  0.000E+00 1.187E-02

     total cpu time spent up to now is   154976.1 secs

     total energy              =   -1546.48937319 Ry
     estimated scf accuracy    <       0.00001172 Ry

     total magnetization       =    -0.76 Bohr mag/cell
     absolute magnetization    =    20.81 Bohr mag/cell

     iteration #  6     ecut=    90.00 Ry     beta= 0.20
     CG style diagonalization
     ethr =  1.01E-08,  avg # of iterations =  4.2

     negative rho (up, down):  0.000E+00 1.187E-02

     total cpu time spent up to now is   155012.0 secs

     total energy              =   -1546.48937464 Ry
     estimated scf accuracy    <       0.00002008 Ry

     total magnetization       =    -0.76 Bohr mag/cell
     absolute magnetization    =    20.81 Bohr mag/cell

     iteration #  7     ecut=    90.00 Ry     beta= 0.20
     CG style diagonalization
     ethr =  1.01E-08,  avg # of iterations =  3.5

     negative rho (up, down):  0.000E+00 1.186E-02

     total cpu time spent up to now is   155042.2 secs

     total energy              =   -1546.48937934 Ry
     estimated scf accuracy    <       0.00000259 Ry

     total magnetization       =    -0.76 Bohr mag/cell
     absolute magnetization    =    20.81 Bohr mag/cell

     iteration #  8     ecut=    90.00 Ry     beta= 0.20
     CG style diagonalization
     ethr =  2.24E-09,  avg # of iterations =  3.5

     negative rho (up, down):  0.000E+00 1.186E-02

     total cpu time spent up to now is   155072.1 secs

     total energy              =   -1546.48937993 Ry
     estimated scf accuracy    <       0.00000237 Ry

     total magnetization       =    -0.76 Bohr mag/cell
     absolute magnetization    =    20.81 Bohr mag/cell

     iteration #  9     ecut=    90.00 Ry     beta= 0.20
     CG style diagonalization
     ethr =  2.05E-09,  avg # of iterations =  3.0

     negative rho (up, down):  0.000E+00 1.186E-02

     total cpu time spent up to now is   155098.3 secs

     total energy              =   -1546.48938027 Ry
     estimated scf accuracy    <       0.00000038 Ry

     total magnetization       =    -0.76 Bohr mag/cell
     absolute magnetization    =    20.81 Bohr mag/cell

     iteration # 10     ecut=    90.00 Ry     beta= 0.20
     CG style diagonalization
     ethr =  3.30E-10,  avg # of iterations =  3.7

     negative rho (up, down):  0.000E+00 1.186E-02

     total cpu time spent up to now is   155130.1 secs

     total energy              =   -1546.48938042 Ry
     estimated scf accuracy    <       0.00000065 Ry

     total magnetization       =    -0.76 Bohr mag/cell
     absolute magnetization    =    20.81 Bohr mag/cell

     iteration # 11     ecut=    90.00 Ry     beta= 0.20
     CG style diagonalization
     ethr =  3.30E-10,  avg # of iterations =  3.3

     negative rho (up, down):  0.000E+00 1.186E-02

     total cpu time spent up to now is   155158.2 secs

     total energy              =   -1546.48938052 Ry
     estimated scf accuracy    <       0.00000007 Ry

     total magnetization       =    -0.76 Bohr mag/cell
     absolute magnetization    =    20.81 Bohr mag/cell

     iteration # 12     ecut=    90.00 Ry     beta= 0.20
     CG style diagonalization
     ethr =  5.72E-11,  avg # of iterations =  3.6

     negative rho (up, down):  0.000E+00 1.186E-02

     total cpu time spent up to now is   155189.4 secs

     total energy              =   -1546.48938055 Ry
     estimated scf accuracy    <       0.00000004 Ry

     total magnetization       =    -0.76 Bohr mag/cell
     absolute magnetization    =    20.81 Bohr mag/cell

     iteration # 13     ecut=    90.00 Ry     beta= 0.20
     CG style diagonalization
     ethr =  3.85E-11,  avg # of iterations =  3.4

     negative rho (up, down):  0.000E+00 1.186E-02

     total cpu time spent up to now is   155218.9 secs

     total energy              =   -1546.48938058 Ry
     estimated scf accuracy    <       0.00000002 Ry

     total magnetization       =    -0.76 Bohr mag/cell
     absolute magnetization    =    20.81 Bohr mag/cell

     iteration # 14     ecut=    90.00 Ry     beta= 0.20
     CG style diagonalization
     ethr =  2.00E-11,  avg # of iterations =  3.3

     negative rho (up, down):  0.000E+00 1.186E-02

     total cpu time spent up to now is   155247.3 secs

     total energy              =   -1546.48938059 Ry
     estimated scf accuracy    <       0.00000002 Ry

     total magnetization       =    -0.76 Bohr mag/cell
     absolute magnetization    =    20.81 Bohr mag/cell

     iteration # 15     ecut=    90.00 Ry     beta= 0.20
     CG style diagonalization
     ethr =  1.50E-11,  avg # of iterations =  3.4

     negative rho (up, down):  0.000E+00 1.186E-02

     Magnetic moment per site:
     atom:    1    charge:   12.6739    magn:   -2.4531    constr:    0.0000
     atom:    2    charge:   11.5393    magn:    2.1049    constr:    0.0000
     atom:    3    charge:   12.6761    magn:   -2.4173    constr:    0.0000
     atom:    4    charge:   11.5365    magn:    2.1286    constr:    0.0000
     atom:    5    charge:   12.6569    magn:   -2.5181    constr:    0.0000
     atom:    6    charge:   11.5537    magn:    2.0950    constr:    0.0000
     atom:    7    charge:   12.6838    magn:   -2.4223    constr:    0.0000
     atom:    8    charge:   11.5348    magn:    2.1357    constr:    0.0000

     total cpu time spent up to now is   155276.8 secs

     End of self-consistent calculation

     Number of k-points >= 100: set verbosity='high' to print the bands.

     the Fermi energy is    15.5105 ev

!    total energy              =   -1546.48938061 Ry
     estimated scf accuracy    <          8.5E-09 Ry
     smearing contrib. (-TS)   =      -0.00430108 Ry
     internal energy E=F+TS    =   -1546.48507952 Ry

     total magnetization       =    -0.76 Bohr mag/cell
     absolute magnetization    =    20.81 Bohr mag/cell

     convergence has been achieved in  15 iterations

     negative rho (up, down):  0.000E+00 1.186E-02

     Forces acting on atoms (cartesian axes, Ry/au):

     atom    1 type  1   force =    -0.02418487   -0.01121972   -0.01809098
     atom    2 type  2   force =     0.01599067    0.02247231   -0.00048593
     atom    3 type  1   force =     0.00644718   -0.01695173    0.03359682
     atom    4 type  2   force =    -0.01122781    0.00752883   -0.01303342
     atom    5 type  1   force =    -0.01122507    0.00179360   -0.01156514
     atom    6 type  2   force =     0.01999628   -0.01761878   -0.01255590
     atom    7 type  1   force =     0.02224595    0.03186819    0.00265355
     atom    8 type  2   force =    -0.01804233   -0.01787269    0.01948100

     Total force =     0.085336     Total SCF correction =     0.000142


     Computing stress (Cartesian axis) and pressure


     negative rho (up, down):  0.000E+00 1.186E-02
          total   stress  (Ry/bohr**3)                   (kbar)     P=      -35.45
  -0.00025061   0.00002826   0.00004095          -36.87        4.16        6.02
   0.00002826  -0.00023724  -0.00005374            4.16      -34.90       -7.91
   0.00004095  -0.00005374  -0.00023512            6.02       -7.91      -34.59


     Entering Dynamics;  it =   102   time =  0.09772 pico-seconds

  new lattice vectors (alat unit) :
   1.043683785   0.009729492   0.005841557
   0.009729492   1.039940555  -0.003004328
   0.005841557  -0.003004328   1.045807376
  new unit-cell volume =    753.3979 (a.u.)^3
  new positions in cryst coord
Mn      -0.070822461   0.526275752  -0.002580435
Cr       0.505680043   0.048234342   0.434638798
Mn       0.004110012  -0.006411263   0.574223577
Cr       0.425371570   0.436782008  -0.004503482
Mn       0.555973879  -0.064067691  -0.063737972
Cr       0.014131944   0.488795558   0.488236905
Mn       0.509459064   0.546773725   0.495126848
Cr       0.056168342   0.023472130   0.078424212
  new positions in cart coord (alat unit)
Mn      -0.068810932   0.546614184  -0.004693457
Cr       0.530778324   0.053775060   0.457357508
Mn       0.007581535  -0.008352500   0.600570523
Cr       0.448176770   0.458379503  -0.003537179
Mn       0.579265247  -0.061025757  -0.063217408
Cr       0.022357077   0.506988997   0.509215807
Mn       0.539926306   0.572081425   0.519140656
Cr       0.059308479   0.024720498   0.082274211

     Ekin =     0.03305822 Ry    T =  367.4 K  Etot =    -1546.45631726
     new unit-cell volume =    753.39791 a.u.^3 (   111.64205 Ang^3 )
     density =      6.36206 g/cm^3

CELL_PARAMETERS (angstrom)
   4.817853090   0.044913280   0.026965795
   0.044913280   4.800573588  -0.013868581
   0.026965795  -0.013868581   4.827656009

ATOMIC_POSITIONS (angstrom)
Mn           -0.3176450245        2.5232803943       -0.0216659358
Cr            2.4501788996        0.2482364325        2.1112537281
Mn            0.0349978807       -0.0385568108        2.7723536473
Cr            2.0688736057        2.1159714618       -0.0163283260
Mn            2.6740042353       -0.2817071006       -0.2918241991
Cr            0.1032047406        2.3403626065        2.3506420084
Mn            2.4924078152        2.6408422727        2.3964570958
Cr            0.2737798017        0.1141147613        0.3797942151



     Maximum number of iterations reached, stopping

     init_run     :     11.12s CPU     11.64s WALL (       1 calls)
     electrons    : 148980.55s CPU 153353.89s WALL (     102 calls)
     update_pot   :    162.80s CPU    165.39s WALL (     101 calls)
     forces       :    543.29s CPU    569.28s WALL (     102 calls)
     stress       :   1088.14s CPU   1119.30s WALL (     102 calls)

     Called by init_run:
     wfcinit      :      9.16s CPU      9.40s WALL (       1 calls)
     potinit      :      0.49s CPU      0.53s WALL (       1 calls)
     hinit0       :      0.98s CPU      1.07s WALL (       1 calls)

     Called by electrons:
     c_bands      : 131513.95s CPU 133981.11s WALL (    4820 calls)
     sum_band     :  14814.78s CPU  16002.76s WALL (    4820 calls)
     v_of_rho     :    637.68s CPU    727.05s WALL (    4919 calls)
     newd         :   1932.84s CPU   2544.67s WALL (    4919 calls)
     mix_rho      :     60.59s CPU     78.38s WALL (    4820 calls)

     Called by c_bands:
     init_us_2    :    669.59s CPU    695.84s WALL ( 1240470 calls)
     ccgdiagg     : 101746.15s CPU 103616.01s WALL (  616299 calls)
     wfcrot       :  28717.66s CPU  29255.66s WALL (  603195 calls)

     Called by *cgdiagg:
     h_psi        :  72597.04s CPU  73996.70s WALL (******** calls)
     s_psi        :  24331.22s CPU  24765.27s WALL (******** calls)

     Called by h_psi:
     h_psi:calbec :  15610.03s CPU  15960.57s WALL (******** calls)
     vloc_psi     :  42402.03s CPU  43232.16s WALL (******** calls)
     add_vuspsi   :  13868.12s CPU  14095.85s WALL (******** calls)
     hs_1psi      :  64971.76s CPU  66170.79s WALL (******** calls)
     s_1psi       :  22510.66s CPU  22906.79s WALL (******** calls)

     General routines
     calbec       :  31150.86s CPU  31883.31s WALL (******** calls)
     fft          :    265.92s CPU    353.75s WALL (  126958 calls)
     ffts         :      8.46s CPU      8.64s WALL (   19478 calls)
     fftw         :  44452.21s CPU  45325.76s WALL (******** calls)
     interpolate  :     25.83s CPU     34.74s WALL (    9838 calls)

     Parallel routines
     fft_scatt_xy :   4244.13s CPU   4314.70s WALL (******** calls)
     fft_scatt_yz :  18843.74s CPU  19308.10s WALL (******** calls)

     PWSCF        :   1d17h53m CPU   1d19h 8m WALL


   This run was terminated on:  16: 9: 1  12Feb2022            

=------------------------------------------------------------------------------=
   JOB DONE.
=------------------------------------------------------------------------------=
Note: The following floating-point exceptions are signalling: IEEE_UNDERFLOW_FLAG IEEE_DENORMAL
Note: The following floating-point exceptions are signalling: IEEE_UNDERFLOW_FLAG IEEE_DENORMAL
Note: The following floating-point exceptions are signalling: IEEE_UNDERFLOW_FLAG IEEE_DENORMAL
Note: The following floating-point exceptions are signalling: IEEE_UNDERFLOW_FLAG IEEE_DENORMAL
Note: The following floating-point exceptions are signalling: IEEE_UNDERFLOW_FLAG IEEE_DENORMAL
Note: The following floating-point exceptions are signalling: IEEE_UNDERFLOW_FLAG IEEE_DENORMAL
Note: The following floating-point exceptions are signalling: IEEE_UNDERFLOW_FLAG IEEE_DENORMAL
Note: The following floating-point exceptions are signalling: IEEE_UNDERFLOW_FLAG IEEE_DENORMAL
Note: The following floating-point exceptions are signalling: IEEE_UNDERFLOW_FLAG IEEE_DENORMAL
Note: The following floating-point exceptions are signalling: IEEE_UNDERFLOW_FLAG IEEE_DENORMAL
Note: The following floating-point exceptions are signalling: IEEE_UNDERFLOW_FLAG IEEE_DENORMAL
Note: The following floating-point exceptions are signalling: IEEE_UNDERFLOW_FLAG IEEE_DENORMAL
Note: The following floating-point exceptions are signalling: IEEE_UNDERFLOW_FLAG IEEE_DENORMAL
Note: The following floating-point exceptions are signalling: IEEE_UNDERFLOW_FLAG IEEE_DENORMAL
Note: The following floating-point exceptions are signalling: IEEE_UNDERFLOW_FLAG IEEE_DENORMAL
Note: The following floating-point exceptions are signalling: IEEE_UNDERFLOW_FLAG IEEE_DENORMAL
Note: The following floating-point exceptions are signalling: IEEE_UNDERFLOW_FLAG IEEE_DENORMAL
Note: The following floating-point exceptions are signalling: IEEE_UNDERFLOW_FLAG IEEE_DENORMAL
Note: The following floating-point exceptions are signalling: IEEE_UNDERFLOW_FLAG IEEE_DENORMAL
Note: The following floating-point exceptions are signalling: IEEE_UNDERFLOW_FLAG IEEE_DENORMAL
Note: The following floating-point exceptions are signalling: IEEE_UNDERFLOW_FLAG IEEE_DENORMAL
Note: The following floating-point exceptions are signalling: IEEE_UNDERFLOW_FLAG IEEE_DENORMAL
Note: The following floating-point exceptions are signalling: IEEE_UNDERFLOW_FLAG IEEE_DENORMAL
Note: The following floating-point exceptions are signalling: IEEE_UNDERFLOW_FLAG IEEE_DENORMAL
