 # File generated with Atomsk by kevin on 2022-03-20 17:48:07
 
           8  atoms
           2  atom types
 
      0.000000000000       4.616200000000  xlo xhi
      0.000000000000       4.616200000000  ylo yhi
      0.000000000000       4.616200000000  zlo zhi
      0.000000000000      -0.023081000000       0.000000000000  xy xz yz
 
Masses
 
            1   0.00000000              # XX
            2   51.99610000             # Cr
 
Atoms # atomic
 
         1    2       -0.007145569785      -0.006588612782       0.004965588299
         2    4        2.304174097480       2.306437983981       2.301896289832
         3    2       -0.018686069785       2.301511387218       2.313065588299
         4    4        2.315714597480      -0.001662016019      -0.006203710168
         5    2        2.300954430215       2.301511387218       0.004965588299
         6    4       -0.018686069785      -0.006588612782       2.313065588299
         7    2        2.289413930215      -0.006588612782       2.313065588299
         8    4       -0.007145569785       2.301511387218       0.004965588299
