 # File generated with Atomsk by kevin on 2022-03-20 17:48:07
 
           8  atoms
           2  atom types
 
      0.000000000000       4.616200000000  xlo xhi
      0.000000000000       4.616200000000  ylo yhi
      0.000000000000       4.616200000000  zlo zhi
     -0.023081000000       0.000000000000       0.000000000000  xy xz yz
 
Masses
 
            1   0.00000000              # XX
            2   51.99610000             # Cr
 
Atoms # atomic
 
         1    2        0.006945446168       0.005269196188      -0.002858322823
         2    4        2.293162558692       2.304697334563       2.308543298664
         3    2       -0.004595053832       2.313369196188       2.305241677177
         4    4        2.304703058692      -0.003402665437       0.000443298664
         5    2        2.303504946168       2.313369196188      -0.002858322823
         6    4        0.006945446168       0.005269196188       2.305241677177
         7    2        2.315045446168       0.005269196188       2.305241677177
         8    4       -0.004595053832       2.313369196188      -0.002858322823
