 # File generated with Atomsk by kevin on 2022-03-20 17:48:07
 
           8  atoms
           2  atom types
 
      0.000000000000       4.616200000000  xlo xhi
      0.000000000000       4.616200000000  ylo yhi
      0.000000000000       4.616200000000  zlo zhi
      0.000000000000       0.000000000000      -0.023081000000  xy xz yz
 
Masses
 
            1   0.00000000              # XX
            2   51.99610000             # Cr
 
Atoms # atomic
 
         1    2       -0.001314965317       0.000501386154       0.007446699555
         2    4        2.308457741602       2.306213977259       2.306873282352
         3    2       -0.001314965317       2.297060886154       2.315546699555
         4    4        2.308457741602       0.009654477259      -0.001226717648
         5    2        2.306785034683       2.308601386154       0.007446699555
         6    4       -0.001314965317      -0.011039113846       2.315546699555
         7    2        2.306785034683      -0.011039113846       2.315546699555
         8    4       -0.001314965317       2.308601386154       0.007446699555
