 # File generated with Atomsk by kevin on 2022-03-20 17:48:07
 
           8  atoms
           2  atom types
 
      0.000000000000       4.616200000000  xlo xhi
      0.000000000000       4.593119000000  ylo yhi
      0.000000000000       4.616200000000  zlo zhi
 
Masses
 
            1   0.00000000              # XX
            2   51.99610000             # Cr
 
Atoms # atomic
 
         1    2       -0.005937753024       0.000004371962       0.005960791075
         2    4        2.311552712524       2.294386162136       2.301824502721
         3    2       -0.005937753024       2.296563871962       2.314060791075
         4    4        2.311552712524      -0.002173337864      -0.006275497279
         5    2        2.302162246976       2.296563871962       0.005960791075
         6    4       -0.005937753024       0.000004371962       2.314060791075
         7    2        2.302162246976       0.000004371962       2.314060791075
         8    4       -0.005937753024       2.296563871962       0.005960791075
