 # File generated with Atomsk by kevin on 2022-03-20 17:48:07
 
           8  atoms
           2  atom types
 
      0.000000000000       4.616200000000  xlo xhi
      0.000000000000       4.616200000000  ylo yhi
      0.000000000000       4.593119000000  zlo zhi
 
Masses
 
            1   0.00000000              # XX
            2   51.99610000             # Cr
 
Atoms # atomic
 
         1    2       -0.007925389841      -0.009572173308       0.004981973281
         2    4        2.300997796405       2.311883693432       2.302654696666
         3    2       -0.007925389841       2.298527826692       2.301541473281
         4    4        2.300997796405       0.003783693432       0.006095196666
         5    2        2.300174610159       2.298527826692       0.004981973281
         6    4       -0.007925389841      -0.009572173308       2.301541473281
         7    2        2.300174610159      -0.009572173308       2.301541473281
         8    4       -0.007925389841       2.298527826692       0.004981973281
