 # File generated with Atomsk by kevin on 2022-03-20 17:48:07
 
           8  atoms
           2  atom types
 
      0.000000000000       4.593119000000  xlo xhi
      0.000000000000       4.616200000000  ylo yhi
      0.000000000000       4.616200000000  zlo zhi
 
Masses
 
            1   0.00000000              # XX
            2   51.99610000             # Cr
 
Atoms # atomic
 
         1    2       -0.002467064520      -0.004101458680      -0.007010803451
         2    4        2.299426806452       2.310589516525       2.313751673191
         3    2       -0.002467064520       2.303998541320       2.301089196549
         4    4        2.299426806452       0.002489516525       0.005651673191
         5    2        2.294092435480       2.303998541320      -0.007010803451
         6    4       -0.002467064520      -0.004101458680       2.301089196549
         7    2        2.294092435480      -0.004101458680       2.301089196549
         8    4       -0.002467064520       2.303998541320      -0.007010803451
