 # File generated with Atomsk by kevin on 2022-03-20 17:45:21
 
           8  atoms
           2  atom types
 
      0.000000000000       4.616200000000  xlo xhi
      0.000000000000       4.616200000000  ylo yhi
      0.000000000000       4.616200000000  zlo zhi
      0.023081000000       0.000000000000       0.000000000000  xy xz yz
 
Masses
 
            1   0.00000000              # XX
            2   51.99610000             # Cr
 
Atoms # atomic
 
         1    2       -0.004084998051       0.003924743244      -0.007038861424
         2    4        2.311327578364       2.314782610980       2.312333345768
         3    2        0.007455501949       2.312024743244       2.301061138576
         4    4        2.299787078364       0.006682610980       0.004233345768
         5    2        2.315555501949       2.312024743244      -0.007038861424
         6    4       -0.004084998051       0.003924743244       2.301061138576
         7    2        2.304015001949       0.003924743244       2.301061138576
         8    4        0.007455501949       2.312024743244      -0.007038861424
