 # File generated with Atomsk by kevin on 2022-03-20 17:48:04
 
           8  atoms
           2  atom types
 
      0.000000000000       4.616200000000  xlo xhi
      0.000000000000       4.616200000000  ylo yhi
      0.000000000000       4.639281000000  zlo zhi
 
Masses
 
            1   0.00000000              # XX
            2   51.99610000             # Cr
 
Atoms # atomic
 
         1    2        0.004649144046       0.007536035799      -0.004785643693
         2    4        2.316753315471       2.309824497767       2.320129337892
         3    2        0.004649144046       2.315636035799       2.314854856307
         4    4        2.316753315471       0.001724497767       0.000488837892
         5    2        2.312749144046       2.315636035799      -0.004785643693
         6    4        0.004649144046       0.007536035799       2.314854856307
         7    2        2.312749144046       0.007536035799       2.314854856307
         8    4        0.004649144046       2.315636035799      -0.004785643693
