 # File generated with Atomsk by kevin on 2022-03-20 17:48:04
 
           8  atoms
           2  atom types
 
      0.000000000000       4.616200000000  xlo xhi
      0.000000000000       4.616200000000  ylo yhi
      0.000000000000       4.616200000000  zlo zhi
      0.000000000000       0.000000000000       0.023081000000  xy xz yz
 
Masses
 
            1   0.00000000              # XX
            2   51.99610000             # Cr
 
Atoms # atomic
 
         1    2       -0.003146250996       0.000423461247       0.007556245313
         2    4        2.300370262824       2.310136952320       2.299239464874
         3    2       -0.003146250996       2.320063961247       2.315656245313
         4    4        2.300370262824      -0.009503547680      -0.008860535126
         5    2        2.304953749004       2.308523461247       0.007556245313
         6    4       -0.003146250996       0.011963961247       2.315656245313
         7    2        2.304953749004       0.011963961247       2.315656245313
         8    4       -0.003146250996       2.308523461247       0.007556245313
