 # File generated with Atomsk by kevin on 2022-03-20 17:48:04
 
           8  atoms
           2  atom types
 
      0.000000000000       4.616200000000  xlo xhi
      0.000000000000       4.639281000000  ylo yhi
      0.000000000000       4.616200000000  zlo zhi
 
Masses
 
            1   0.00000000              # XX
            2   51.99610000             # Cr
 
Atoms # atomic
 
         1    2        0.007189288732      -0.003787508020       0.001462245447
         2    4        2.309438398725       2.320730203033       2.303125488261
         3    2        0.007189288732       2.315852991980       2.309562245447
         4    4        2.309438398725       0.001089703033      -0.004974511739
         5    2        2.315289288732       2.315852991980       0.001462245447
         6    4        0.007189288732      -0.003787508020       2.309562245447
         7    2        2.315289288732      -0.003787508020       2.309562245447
         8    4        0.007189288732       2.315852991980       0.001462245447
