 # File generated with Atomsk by kevin on 2022-03-20 17:48:04
 
           8  atoms
           2  atom types
 
      0.000000000000       4.616200000000  xlo xhi
      0.000000000000       4.616200000000  ylo yhi
      0.000000000000       4.616200000000  zlo zhi
      0.000000000000       0.023081000000       0.000000000000  xy xz yz
 
Masses
 
            1   0.00000000              # XX
            2   51.99610000             # Cr
 
Atoms # atomic
 
         1    2        0.002632465867       0.008650597343       0.007846041342
         2    4        2.324648494836       2.317400009366       2.310036630919
         3    2        0.014172965867       2.316750597343       2.315946041342
         4    4        2.313107994836       0.009300009366       0.001936630919
         5    2        2.310732465867       2.316750597343       0.007846041342
         6    4        0.014172965867       0.008650597343       2.315946041342
         7    2        2.322272965867       0.008650597343       2.315946041342
         8    4        0.002632465867       2.316750597343       0.007846041342
