 # File generated with Atomsk by kevin on 2022-03-20 17:48:04
 
           8  atoms
           2  atom types
 
      0.000000000000       4.639281000000  xlo xhi
      0.000000000000       4.616200000000  ylo yhi
      0.000000000000       4.616200000000  zlo zhi
 
Masses
 
            1   0.00000000              # XX
            2   51.99610000             # Cr
 
Atoms # atomic
 
         1    2       -0.006340584515      -0.002988252882      -0.001946349857
         2    4        2.320938746028       2.300403790285       2.316838189192
         3    2       -0.006340584515       2.305111747118       2.306153650143
         4    4        2.320938746028      -0.007696209715       0.008738189192
         5    2        2.313299915485       2.305111747118      -0.001946349857
         6    4       -0.006340584515      -0.002988252882       2.306153650143
         7    2        2.313299915485      -0.002988252882       2.306153650143
         8    4       -0.006340584515       2.305111747118      -0.001946349857
