LAMMPS data file via write_data, version 10 Mar 2021, timestep = 0
4 atoms
1 atom types
4 atoms
1 atom types
0.0 2.45894247637856 xlo xhi
0.0 3.89606530387432 ylo yhi
0.0 4.27106130078326 zlo zhi
-0.00469964074401719 -0.00092734595503361 -0.00104425208119498 xy xz yz

Masses

1 55.84500
Atoms

1 1	0.9164698906        3.8967181147        1.9638989635
2 1	0.9182432720        1.9483743610        3.3770254514
3 1	2.1449724433        3.8976926906        4.0999936223
4 1	2.1486831084        1.9502822651        1.2420612393
