
     Program PWSCF v.6.7MaX starts on 16May2022 at 21:52: 8 

     This program is part of the open-source Quantum ESPRESSO suite
     for quantum simulation of materials; please cite
         "P. Giannozzi et al., J. Phys.:Condens. Matter 21 395502 (2009);
         "P. Giannozzi et al., J. Phys.:Condens. Matter 29 465901 (2017);
          URL http://www.quantum-espresso.org", 
     in publications or presentations arising from this work. More details at
     http://www.quantum-espresso.org/quote

     Parallel version (MPI), running on     4 processors

     MPI processes distributed on     1 nodes
     R & G space division:  proc/nbgrp/npool/nimage =       4
     Reading input from Fe_mp-1271693.in

     Current dimensions of program PWSCF are:
     Max number of different atomic species (ntypx) = 10
     Max number of k-points (npk) =  40000
     Max angular momentum in pseudopotentials (lmaxx) =  3
     file Fe.pbe-spn-kjpaw_psl.0.2.1.UPF: wavefunction(s)  3D renormalized

     Subspace diagonalization in iterative solution of the eigenvalue problem:
     a serial algorithm will be used


     Parallelization info
     --------------------
     sticks:   dense  smooth     PW     G-vecs:    dense   smooth      PW
     Min         748     246     73                43075     8278    1289
     Max         749     247     74                43076     8281    1292
     Sum        2993     987    295               172303    33121    5163



     bravais-lattice index     =            0
     lattice parameter (alat)  =       4.6147  a.u.
     unit-cell volume          =     287.5286 (a.u.)^3
     number of atoms/cell      =            4
     number of atomic types    =            1
     number of electrons       =        64.00
     number of Kohn-Sham states=           38
     kinetic-energy cutoff     =      90.0000  Ry
     charge density cutoff     =    1080.0000  Ry
     scf convergence threshold =      1.0E-08
     mixing beta               =       0.2000
     number of iterations used =            8  plain     mixing
     energy convergence thresh.=      1.0E-05
     force convergence thresh. =      1.0E-04
     press convergence thresh. =      1.0E-01
     Exchange-correlation= SLA  PW   PBX  PBC
                           (   1   4   3   4   0   0   0)
     nstep                     =         1000


     celldm(1)=   4.614701  celldm(2)=   0.000000  celldm(3)=   0.000000
     celldm(4)=   0.000000  celldm(5)=   0.000000  celldm(6)=   0.000000

     crystal axes: (cart. coord. in units of alat)
               a(1) = (   1.000000   0.000000   0.000000 )  
               a(2) = (  -0.003820   1.628420   0.000000 )  
               a(3) = (  -0.001629  -0.000772   1.796735 )  

     reciprocal axes: (cart. coord. in units 2 pi/alat)
               b(1) = (  1.000000  0.002346  0.000908 )  
               b(2) = ( -0.000000  0.614092  0.000264 )  
               b(3) = (  0.000000 -0.000000  0.556565 )  


     PseudoPot. # 1 for Fe read from file:
     /opt/QEpot/SSSP_precision_pseudos/Fe.pbe-spn-kjpaw_psl.0.2.1.UPF
     MD5 check sum: e86618425769142926afa95317d90200
     Pseudo is Projector augmented-wave + core cor, Zval = 16.0
     Generated using "atomic" code by A. Dal Corso  v.5.0.99 svn rev. 10869
     Shape of augmentation charge: PSQ
     Using radial grid of 1191 points,  6 beta functions with: 
                l(1) =   0
                l(2) =   0
                l(3) =   1
                l(4) =   1
                l(5) =   2
                l(6) =   2
     Q(r) pseudized with 0 coefficients 


     atomic species   valence    mass     pseudopotential
        Fe            16.00    55.84500     Fe( 1.00)

     Starting magnetic structure 
     atomic species   magnetization
        Fe           0.200

     No symmetry found



   Cartesian axes

     site n.     atom                  positions (alat units)
         1           Fe  tau(   1) = (   0.8717045   0.8140479   0.5100319  )
         2           Fe  tau(   2) = (   0.8704993   1.6276188   1.7359278  )
         3           Fe  tau(   3) = (   0.3709380   0.8136569   1.4083328  )
         4           Fe  tau(   4) = (   0.3713249   1.6280066   0.8375443  )

     number of k points=    63  Gaussian smearing, width (Ry)=  0.0100
                       cart. coord. in units 2pi/alat
        k(    1) = (   0.0000000   0.0000000   0.0000000), wk =   0.0080000
        k(    2) = (   0.0000000   0.0000000   0.1113130), wk =   0.0160000
        k(    3) = (   0.0000000   0.0000000   0.2226261), wk =   0.0160000
        k(    4) = (   0.0000000   0.1228184   0.0000528), wk =   0.0160000
        k(    5) = (   0.0000000   0.1228184   0.1113658), wk =   0.0160000
        k(    6) = (   0.0000000   0.1228184   0.2226789), wk =   0.0160000
        k(    7) = (   0.0000000   0.1228184  -0.2225733), wk =   0.0160000
        k(    8) = (   0.0000000   0.1228184  -0.1112602), wk =   0.0160000
        k(    9) = (   0.0000000   0.2456368   0.0001056), wk =   0.0160000
        k(   10) = (   0.0000000   0.2456368   0.1114186), wk =   0.0160000
        k(   11) = (   0.0000000   0.2456368   0.2227317), wk =   0.0160000
        k(   12) = (   0.0000000   0.2456368  -0.2225205), wk =   0.0160000
        k(   13) = (   0.0000000   0.2456368  -0.1112074), wk =   0.0160000
        k(   14) = (   0.2000000   0.0004691   0.0001816), wk =   0.0160000
        k(   15) = (   0.2000000   0.0004691   0.1114946), wk =   0.0160000
        k(   16) = (   0.2000000   0.0004691   0.2228076), wk =   0.0160000
        k(   17) = (   0.2000000   0.0004691  -0.2224445), wk =   0.0160000
        k(   18) = (   0.2000000   0.0004691  -0.1111315), wk =   0.0160000
        k(   19) = (   0.2000000   0.1232875   0.0002344), wk =   0.0160000
        k(   20) = (   0.2000000   0.1232875   0.1115474), wk =   0.0160000
        k(   21) = (   0.2000000   0.1232875   0.2228604), wk =   0.0160000
        k(   22) = (   0.2000000   0.1232875  -0.2223917), wk =   0.0160000
        k(   23) = (   0.2000000   0.1232875  -0.1110787), wk =   0.0160000
        k(   24) = (   0.2000000   0.2461060   0.0002872), wk =   0.0160000
        k(   25) = (   0.2000000   0.2461060   0.1116002), wk =   0.0160000
        k(   26) = (   0.2000000   0.2461060   0.2229132), wk =   0.0160000
        k(   27) = (   0.2000000   0.2461060  -0.2223389), wk =   0.0160000
        k(   28) = (   0.2000000   0.2461060  -0.1110259), wk =   0.0160000
        k(   29) = (   0.2000000  -0.2451677   0.0000760), wk =   0.0160000
        k(   30) = (   0.2000000  -0.2451677   0.1113890), wk =   0.0160000
        k(   31) = (   0.2000000  -0.2451677   0.2227020), wk =   0.0160000
        k(   32) = (   0.2000000  -0.2451677  -0.2225501), wk =   0.0160000
        k(   33) = (   0.2000000  -0.2451677  -0.1112371), wk =   0.0160000
        k(   34) = (   0.2000000  -0.1223493   0.0001288), wk =   0.0160000
        k(   35) = (   0.2000000  -0.1223493   0.1114418), wk =   0.0160000
        k(   36) = (   0.2000000  -0.1223493   0.2227548), wk =   0.0160000
        k(   37) = (   0.2000000  -0.1223493  -0.2224973), wk =   0.0160000
        k(   38) = (   0.2000000  -0.1223493  -0.1111843), wk =   0.0160000
        k(   39) = (   0.4000000   0.0009383   0.0003631), wk =   0.0160000
        k(   40) = (   0.4000000   0.0009383   0.1116761), wk =   0.0160000
        k(   41) = (   0.4000000   0.0009383   0.2229892), wk =   0.0160000
        k(   42) = (   0.4000000   0.0009383  -0.2222630), wk =   0.0160000
        k(   43) = (   0.4000000   0.0009383  -0.1109499), wk =   0.0160000
        k(   44) = (   0.4000000   0.1237567   0.0004159), wk =   0.0160000
        k(   45) = (   0.4000000   0.1237567   0.1117289), wk =   0.0160000
        k(   46) = (   0.4000000   0.1237567   0.2230420), wk =   0.0160000
        k(   47) = (   0.4000000   0.1237567  -0.2222102), wk =   0.0160000
        k(   48) = (   0.4000000   0.1237567  -0.1108971), wk =   0.0160000
        k(   49) = (   0.4000000   0.2465751   0.0004687), wk =   0.0160000
        k(   50) = (   0.4000000   0.2465751   0.1117817), wk =   0.0160000
        k(   51) = (   0.4000000   0.2465751   0.2230948), wk =   0.0160000
        k(   52) = (   0.4000000   0.2465751  -0.2221574), wk =   0.0160000
        k(   53) = (   0.4000000   0.2465751  -0.1108443), wk =   0.0160000
        k(   54) = (   0.4000000  -0.2446985   0.0002575), wk =   0.0160000
        k(   55) = (   0.4000000  -0.2446985   0.1115705), wk =   0.0160000
        k(   56) = (   0.4000000  -0.2446985   0.2228836), wk =   0.0160000
        k(   57) = (   0.4000000  -0.2446985  -0.2223686), wk =   0.0160000
        k(   58) = (   0.4000000  -0.2446985  -0.1110555), wk =   0.0160000
        k(   59) = (   0.4000000  -0.1218801   0.0003103), wk =   0.0160000
        k(   60) = (   0.4000000  -0.1218801   0.1116233), wk =   0.0160000
        k(   61) = (   0.4000000  -0.1218801   0.2229364), wk =   0.0160000
        k(   62) = (   0.4000000  -0.1218801  -0.2223158), wk =   0.0160000
        k(   63) = (   0.4000000  -0.1218801  -0.1110027), wk =   0.0160000

     Dense  grid:   172303 G-vectors     FFT dimensions: (  50,  80,  90)

     Smooth grid:    33121 G-vectors     FFT dimensions: (  27,  45,  54)

     Estimated max dynamical RAM per process >     256.42 MB

     Estimated total dynamical RAM >       1.00 GB

     Check: negative core charge=   -0.000011
     Generating pointlists ...
     new r_m :   0.4101 (alat units)  1.8926 (a.u.) for type    1

     Initial potential from superposition of free atoms

     starting charge   63.99825, renormalised to   64.00000
     Starting wfcs are   52 randomized atomic wfcs
     Checking if some PAW data can be deallocated... 

     total cpu time spent up to now is        6.2 secs

     Self-consistent Calculation

     iteration #  1     ecut=    90.00 Ry     beta= 0.20
     Davidson diagonalization with overlap
     ethr =  1.00E-02,  avg # of iterations =  2.0

     Threshold (ethr) on eigenvalues was too large:
     Diagonalizing with lowered threshold

     Davidson diagonalization with overlap
     ethr =  1.19E-04,  avg # of iterations =  5.1

     total cpu time spent up to now is       28.6 secs

     total energy              =   -1316.93074782 Ry
     estimated scf accuracy    <       0.10267908 Ry

     total magnetization       =    10.14 Bohr mag/cell
     absolute magnetization    =    10.17 Bohr mag/cell

     iteration #  2     ecut=    90.00 Ry     beta= 0.20
     Davidson diagonalization with overlap
     ethr =  1.60E-04,  avg # of iterations =  1.4

     total cpu time spent up to now is       36.9 secs

     total energy              =   -1316.96040118 Ry
     estimated scf accuracy    <       0.04401057 Ry

     total magnetization       =    10.05 Bohr mag/cell
     absolute magnetization    =    10.09 Bohr mag/cell

     iteration #  3     ecut=    90.00 Ry     beta= 0.20
     Davidson diagonalization with overlap
     ethr =  6.88E-05,  avg # of iterations =  2.1

     negative rho (up, down):  0.000E+00 2.558E-05

     total cpu time spent up to now is       45.8 secs

     total energy              =   -1316.97744936 Ry
     estimated scf accuracy    <       0.01779019 Ry

     total magnetization       =     9.80 Bohr mag/cell
     absolute magnetization    =     9.90 Bohr mag/cell

     iteration #  4     ecut=    90.00 Ry     beta= 0.20
     Davidson diagonalization with overlap
     ethr =  2.78E-05,  avg # of iterations =  2.0

     negative rho (up, down):  0.000E+00 9.217E-05

     total cpu time spent up to now is       54.5 secs

     total energy              =   -1316.98542807 Ry
     estimated scf accuracy    <       0.04766537 Ry

     total magnetization       =     9.51 Bohr mag/cell
     absolute magnetization    =     9.65 Bohr mag/cell

     iteration #  5     ecut=    90.00 Ry     beta= 0.20
     Davidson diagonalization with overlap
     ethr =  2.78E-05,  avg # of iterations =  1.7

     negative rho (up, down):  0.000E+00 9.523E-05

     total cpu time spent up to now is       63.2 secs

     total energy              =   -1316.98995377 Ry
     estimated scf accuracy    <       0.00848244 Ry

     total magnetization       =     8.93 Bohr mag/cell
     absolute magnetization    =     9.17 Bohr mag/cell

     iteration #  6     ecut=    90.00 Ry     beta= 0.20
     Davidson diagonalization with overlap
     ethr =  1.33E-05,  avg # of iterations =  1.0

     negative rho (up, down):  0.000E+00 9.515E-05

     total cpu time spent up to now is       71.2 secs

     total energy              =   -1316.99015189 Ry
     estimated scf accuracy    <       0.00527113 Ry

     total magnetization       =     8.92 Bohr mag/cell
     absolute magnetization    =     9.16 Bohr mag/cell

     iteration #  7     ecut=    90.00 Ry     beta= 0.20
     Davidson diagonalization with overlap
     ethr =  8.24E-06,  avg # of iterations =  1.0

     negative rho (up, down):  0.000E+00 6.258E-05

     total cpu time spent up to now is       79.2 secs

     total energy              =   -1316.99102615 Ry
     estimated scf accuracy    <       0.00453594 Ry

     total magnetization       =     8.91 Bohr mag/cell
     absolute magnetization    =     9.16 Bohr mag/cell

     iteration #  8     ecut=    90.00 Ry     beta= 0.20
     Davidson diagonalization with overlap
     ethr =  7.09E-06,  avg # of iterations =  1.9

     negative rho (up, down):  0.000E+00 5.424E-05

     total cpu time spent up to now is       88.1 secs

     total energy              =   -1316.99444238 Ry
     estimated scf accuracy    <       0.00783752 Ry

     total magnetization       =     8.16 Bohr mag/cell
     absolute magnetization    =     8.46 Bohr mag/cell

     iteration #  9     ecut=    90.00 Ry     beta= 0.20
     Davidson diagonalization with overlap
     ethr =  7.09E-06,  avg # of iterations =  1.2

     negative rho (up, down):  0.000E+00 5.399E-05

     total cpu time spent up to now is       96.2 secs

     total energy              =   -1316.99512660 Ry
     estimated scf accuracy    <       0.00640689 Ry

     total magnetization       =     7.84 Bohr mag/cell
     absolute magnetization    =     8.16 Bohr mag/cell

     iteration # 10     ecut=    90.00 Ry     beta= 0.20
     Davidson diagonalization with overlap
     ethr =  7.09E-06,  avg # of iterations =  1.0

     negative rho (up, down):  0.000E+00 6.282E-05

     total cpu time spent up to now is      104.2 secs

     total energy              =   -1316.99329205 Ry
     estimated scf accuracy    <       0.00624056 Ry

     total magnetization       =     7.82 Bohr mag/cell
     absolute magnetization    =     8.14 Bohr mag/cell

     iteration # 11     ecut=    90.00 Ry     beta= 0.20
     Davidson diagonalization with overlap
     ethr =  7.09E-06,  avg # of iterations =  1.9

     negative rho (up, down):  0.000E+00 9.711E-05

     total cpu time spent up to now is      113.1 secs

     total energy              =   -1316.98797744 Ry
     estimated scf accuracy    <       0.00345929 Ry

     total magnetization       =     8.12 Bohr mag/cell
     absolute magnetization    =     8.44 Bohr mag/cell

     iteration # 12     ecut=    90.00 Ry     beta= 0.20
     Davidson diagonalization with overlap
     ethr =  5.41E-06,  avg # of iterations =  1.6

     negative rho (up, down):  0.000E+00 1.409E-04

     total cpu time spent up to now is      122.0 secs

     total energy              =   -1316.98706334 Ry
     estimated scf accuracy    <       0.00249322 Ry

     total magnetization       =     8.87 Bohr mag/cell
     absolute magnetization    =     9.17 Bohr mag/cell

     iteration # 13     ecut=    90.00 Ry     beta= 0.20
     Davidson diagonalization with overlap
     ethr =  3.90E-06,  avg # of iterations =  2.1

     negative rho (up, down):  0.000E+00 3.139E-05

     total cpu time spent up to now is      130.9 secs

     total energy              =   -1316.98054223 Ry
     estimated scf accuracy    <       0.00366708 Ry

     total magnetization       =     9.26 Bohr mag/cell
     absolute magnetization    =     9.56 Bohr mag/cell

     iteration # 14     ecut=    90.00 Ry     beta= 0.20
     Davidson diagonalization with overlap
     ethr =  3.90E-06,  avg # of iterations =  3.6

     negative rho (up, down):  0.000E+00 3.505E-05

     total cpu time spent up to now is      142.2 secs

     total energy              =   -1316.99711204 Ry
     estimated scf accuracy    <       0.00459074 Ry

     total magnetization       =     7.31 Bohr mag/cell
     absolute magnetization    =     7.62 Bohr mag/cell

     iteration # 15     ecut=    90.00 Ry     beta= 0.20
     Davidson diagonalization with overlap
     ethr =  3.90E-06,  avg # of iterations =  1.0

     negative rho (up, down):  0.000E+00 3.613E-05

     total cpu time spent up to now is      150.2 secs

     total energy              =   -1316.99662034 Ry
     estimated scf accuracy    <       0.00355367 Ry

     total magnetization       =     7.44 Bohr mag/cell
     absolute magnetization    =     7.74 Bohr mag/cell

     iteration # 16     ecut=    90.00 Ry     beta= 0.20
     Davidson diagonalization with overlap
     ethr =  3.90E-06,  avg # of iterations =  1.0

     negative rho (up, down):  0.000E+00 4.415E-05

     total cpu time spent up to now is      158.2 secs

     total energy              =   -1316.99410501 Ry
     estimated scf accuracy    <       0.00367595 Ry

     total magnetization       =     7.57 Bohr mag/cell
     absolute magnetization    =     7.86 Bohr mag/cell

     iteration # 17     ecut=    90.00 Ry     beta= 0.20
     Davidson diagonalization with overlap
     ethr =  3.90E-06,  avg # of iterations =  1.5

     negative rho (up, down):  0.000E+00 4.170E-05

     total cpu time spent up to now is      166.9 secs

     total energy              =   -1316.99570548 Ry
     estimated scf accuracy    <       0.00323551 Ry

     total magnetization       =     7.99 Bohr mag/cell
     absolute magnetization    =     8.27 Bohr mag/cell

     iteration # 18     ecut=    90.00 Ry     beta= 0.20
     Davidson diagonalization with overlap
     ethr =  3.90E-06,  avg # of iterations =  1.0

     negative rho (up, down):  0.000E+00 3.821E-05

     total cpu time spent up to now is      174.9 secs

     total energy              =   -1316.99675477 Ry
     estimated scf accuracy    <       0.00425138 Ry

     total magnetization       =     7.74 Bohr mag/cell
     absolute magnetization    =     8.02 Bohr mag/cell

     iteration # 19     ecut=    90.00 Ry     beta= 0.20
     Davidson diagonalization with overlap
     ethr =  3.90E-06,  avg # of iterations =  1.0

     negative rho (up, down):  0.000E+00 2.605E-05

     total cpu time spent up to now is      182.9 secs

     total energy              =   -1316.99813513 Ry
     estimated scf accuracy    <       0.00424753 Ry

     total magnetization       =     7.50 Bohr mag/cell
     absolute magnetization    =     7.79 Bohr mag/cell

     iteration # 20     ecut=    90.00 Ry     beta= 0.20
     Davidson diagonalization with overlap
     ethr =  3.90E-06,  avg # of iterations =  1.8

     negative rho (up, down):  0.000E+00 5.549E-05

     total cpu time spent up to now is      191.8 secs

     total energy              =   -1316.98179736 Ry
     estimated scf accuracy    <       0.00416999 Ry

     total magnetization       =     6.99 Bohr mag/cell
     absolute magnetization    =     7.29 Bohr mag/cell

     iteration # 21     ecut=    90.00 Ry     beta= 0.20
     Davidson diagonalization with overlap
     ethr =  3.90E-06,  avg # of iterations =  3.0

     negative rho (up, down):  0.000E+00 2.234E-04

     total cpu time spent up to now is      202.0 secs

     total energy              =   -1316.92842527 Ry
     estimated scf accuracy    <       0.00232821 Ry

     total magnetization       =     8.55 Bohr mag/cell
     absolute magnetization    =     8.84 Bohr mag/cell

     iteration # 22     ecut=    90.00 Ry     beta= 0.20
     Davidson diagonalization with overlap
     ethr =  3.64E-06,  avg # of iterations =  4.5

     negative rho (up, down):  0.000E+00 2.955E-05

     total cpu time spent up to now is      215.7 secs

     total energy              =   -1316.93327585 Ry
     estimated scf accuracy    <       0.03687873 Ry

     total magnetization       =    10.37 Bohr mag/cell
     absolute magnetization    =    10.69 Bohr mag/cell

     iteration # 23     ecut=    90.00 Ry     beta= 0.20
     Davidson diagonalization with overlap
     ethr =  3.64E-06,  avg # of iterations =  4.7

     total cpu time spent up to now is      230.1 secs

     total energy              =   -1316.98698844 Ry
     estimated scf accuracy    <       0.00415587 Ry

     total magnetization       =     6.89 Bohr mag/cell
     absolute magnetization    =     7.20 Bohr mag/cell

     iteration # 24     ecut=    90.00 Ry     beta= 0.20
     Davidson diagonalization with overlap
     ethr =  3.64E-06,  avg # of iterations =  4.6

     total cpu time spent up to now is      243.0 secs

     total energy              =   -1317.01965534 Ry
     estimated scf accuracy    <       0.01031306 Ry

     total magnetization       =     4.22 Bohr mag/cell
     absolute magnetization    =     4.56 Bohr mag/cell

     iteration # 25     ecut=    90.00 Ry     beta= 0.20
     Davidson diagonalization with overlap
     ethr =  3.64E-06,  avg # of iterations =  1.3

     total cpu time spent up to now is      251.2 secs

     total energy              =   -1317.01834260 Ry
     estimated scf accuracy    <       0.01040931 Ry

     total magnetization       =     3.97 Bohr mag/cell
     absolute magnetization    =     4.32 Bohr mag/cell

     iteration # 26     ecut=    90.00 Ry     beta= 0.20
     Davidson diagonalization with overlap
     ethr =  3.64E-06,  avg # of iterations =  1.0

     total cpu time spent up to now is      259.2 secs

     total energy              =   -1317.01472309 Ry
     estimated scf accuracy    <       0.01052863 Ry

     total magnetization       =     4.13 Bohr mag/cell
     absolute magnetization    =     4.47 Bohr mag/cell

     iteration # 27     ecut=    90.00 Ry     beta= 0.20
     Davidson diagonalization with overlap
     ethr =  3.64E-06,  avg # of iterations =  1.5

     negative rho (up, down):  0.000E+00 8.121E-07

     total cpu time spent up to now is      267.8 secs

     total energy              =   -1317.00919344 Ry
     estimated scf accuracy    <       0.00998232 Ry

     total magnetization       =     4.48 Bohr mag/cell
     absolute magnetization    =     4.82 Bohr mag/cell

     iteration # 28     ecut=    90.00 Ry     beta= 0.20
     Davidson diagonalization with overlap
     ethr =  3.64E-06,  avg # of iterations =  1.9

     negative rho (up, down):  0.000E+00 3.104E-06

     total cpu time spent up to now is      276.8 secs

     total energy              =   -1317.00978283 Ry
     estimated scf accuracy    <       0.00846302 Ry

     total magnetization       =     5.05 Bohr mag/cell
     absolute magnetization    =     5.38 Bohr mag/cell

     iteration # 29     ecut=    90.00 Ry     beta= 0.20
     Davidson diagonalization with overlap
     ethr =  3.64E-06,  avg # of iterations =  1.0

     negative rho (up, down):  0.000E+00 7.036E-06

     total cpu time spent up to now is      284.7 secs

     total energy              =   -1317.00703303 Ry
     estimated scf accuracy    <       0.00818819 Ry

     total magnetization       =     5.17 Bohr mag/cell
     absolute magnetization    =     5.49 Bohr mag/cell

     iteration # 30     ecut=    90.00 Ry     beta= 0.20
     Davidson diagonalization with overlap
     ethr =  3.64E-06,  avg # of iterations =  1.5

     total cpu time spent up to now is      293.3 secs

     total energy              =   -1317.01050247 Ry
     estimated scf accuracy    <       0.00717779 Ry

     total magnetization       =     5.51 Bohr mag/cell
     absolute magnetization    =     5.83 Bohr mag/cell

     iteration # 31     ecut=    90.00 Ry     beta= 0.20
     Davidson diagonalization with overlap
     ethr =  3.64E-06,  avg # of iterations =  2.1

     negative rho (up, down):  0.000E+00 1.646E-04

     total cpu time spent up to now is      302.4 secs

     total energy              =   -1316.76006302 Ry
     estimated scf accuracy    <       0.00915245 Ry

     total magnetization       =     4.54 Bohr mag/cell
     absolute magnetization    =     4.88 Bohr mag/cell

     iteration # 32     ecut=    90.00 Ry     beta= 0.20
     Davidson diagonalization with overlap
     ethr =  3.64E-06,  avg # of iterations =  5.9

     total cpu time spent up to now is      319.2 secs

     total energy              =   -1316.68021496 Ry
     estimated scf accuracy    <       0.03004766 Ry

     total magnetization       =    10.08 Bohr mag/cell
     absolute magnetization    =    10.45 Bohr mag/cell

     iteration # 33     ecut=    90.00 Ry     beta= 0.20
     Davidson diagonalization with overlap
     ethr =  3.64E-06,  avg # of iterations =  7.0

     total cpu time spent up to now is      338.9 secs

     total energy              =   -1317.04373762 Ry
     estimated scf accuracy    <       0.00784382 Ry

     total magnetization       =     1.83 Bohr mag/cell
     absolute magnetization    =     2.10 Bohr mag/cell

     iteration # 34     ecut=    90.00 Ry     beta= 0.20
     Davidson diagonalization with overlap
     ethr =  3.64E-06,  avg # of iterations =  3.1

     total cpu time spent up to now is      349.1 secs

     total energy              =   -1317.04570787 Ry
     estimated scf accuracy    <       0.00740980 Ry

     total magnetization       =     1.09 Bohr mag/cell
     absolute magnetization    =     1.33 Bohr mag/cell

     iteration # 35     ecut=    90.00 Ry     beta= 0.20
     Davidson diagonalization with overlap
     ethr =  3.64E-06,  avg # of iterations =  1.5

     total cpu time spent up to now is      357.8 secs

     total energy              =   -1317.02045757 Ry
     estimated scf accuracy    <       0.00675778 Ry

     total magnetization       =     1.37 Bohr mag/cell
     absolute magnetization    =     1.60 Bohr mag/cell

     iteration # 36     ecut=    90.00 Ry     beta= 0.20
     Davidson diagonalization with overlap
     ethr =  3.64E-06,  avg # of iterations =  3.5

     total cpu time spent up to now is      369.2 secs

     total energy              =   -1317.02984283 Ry
     estimated scf accuracy    <       0.00945878 Ry

     total magnetization       =     2.74 Bohr mag/cell
     absolute magnetization    =     3.03 Bohr mag/cell

     iteration # 37     ecut=    90.00 Ry     beta= 0.20
     Davidson diagonalization with overlap
     ethr =  3.64E-06,  avg # of iterations =  1.6

     total cpu time spent up to now is      377.9 secs

     total energy              =   -1317.03418385 Ry
     estimated scf accuracy    <       0.00904677 Ry

     total magnetization       =     3.02 Bohr mag/cell
     absolute magnetization    =     3.32 Bohr mag/cell

     iteration # 38     ecut=    90.00 Ry     beta= 0.20
     Davidson diagonalization with overlap
     ethr =  3.64E-06,  avg # of iterations =  1.5

     total cpu time spent up to now is      386.7 secs

     total energy              =   -1317.03799852 Ry
     estimated scf accuracy    <       0.00754688 Ry

     total magnetization       =     2.52 Bohr mag/cell
     absolute magnetization    =     2.81 Bohr mag/cell

     iteration # 39     ecut=    90.00 Ry     beta= 0.20
     Davidson diagonalization with overlap
     ethr =  3.64E-06,  avg # of iterations =  1.7

     total cpu time spent up to now is      395.5 secs

     total energy              =   -1316.96675854 Ry
     estimated scf accuracy    <       0.00681662 Ry

     total magnetization       =     2.27 Bohr mag/cell
     absolute magnetization    =     2.55 Bohr mag/cell

     iteration # 40     ecut=    90.00 Ry     beta= 0.20
     Davidson diagonalization with overlap
     ethr =  3.64E-06,  avg # of iterations =  5.6

     total cpu time spent up to now is      411.3 secs

     total energy              =   -1317.04790034 Ry
     estimated scf accuracy    <       0.02904260 Ry

     total magnetization       =    -0.82 Bohr mag/cell
     absolute magnetization    =     0.82 Bohr mag/cell

     iteration # 41     ecut=    90.00 Ry     beta= 0.20
     Davidson diagonalization with overlap
     ethr =  3.64E-06,  avg # of iterations =  3.4

     total cpu time spent up to now is      421.7 secs

     total energy              =   -1317.01950228 Ry
     estimated scf accuracy    <       0.02268863 Ry

     total magnetization       =    -1.16 Bohr mag/cell
     absolute magnetization    =     1.21 Bohr mag/cell

     iteration # 42     ecut=    90.00 Ry     beta= 0.20
     Davidson diagonalization with overlap
     ethr =  3.64E-06,  avg # of iterations =  4.5

     total cpu time spent up to now is      435.2 secs

     total energy              =   -1317.05450538 Ry
     estimated scf accuracy    <       0.00333573 Ry

     total magnetization       =     0.74 Bohr mag/cell
     absolute magnetization    =     0.86 Bohr mag/cell

     iteration # 43     ecut=    90.00 Ry     beta= 0.20
     Davidson diagonalization with overlap
     ethr =  3.64E-06,  avg # of iterations =  1.3

     total cpu time spent up to now is      443.4 secs

     total energy              =   -1317.05511204 Ry
     estimated scf accuracy    <       0.00200303 Ry

     total magnetization       =     0.65 Bohr mag/cell
     absolute magnetization    =     0.75 Bohr mag/cell

     iteration # 44     ecut=    90.00 Ry     beta= 0.20
     Davidson diagonalization with overlap
     ethr =  3.13E-06,  avg # of iterations =  2.2

     total cpu time spent up to now is      452.8 secs

     total energy              =   -1317.05586878 Ry
     estimated scf accuracy    <       0.00142183 Ry

     total magnetization       =     0.38 Bohr mag/cell
     absolute magnetization    =     0.45 Bohr mag/cell

     iteration # 45     ecut=    90.00 Ry     beta= 0.20
     Davidson diagonalization with overlap
     ethr =  2.22E-06,  avg # of iterations =  1.2

     total cpu time spent up to now is      461.0 secs

     total energy              =   -1317.05600348 Ry
     estimated scf accuracy    <       0.00077398 Ry

     total magnetization       =     0.37 Bohr mag/cell
     absolute magnetization    =     0.43 Bohr mag/cell

     iteration # 46     ecut=    90.00 Ry     beta= 0.20
     Davidson diagonalization with overlap
     ethr =  1.21E-06,  avg # of iterations =  2.0

     total cpu time spent up to now is      469.8 secs

     total energy              =   -1317.05612331 Ry
     estimated scf accuracy    <       0.00045427 Ry

     total magnetization       =     0.27 Bohr mag/cell
     absolute magnetization    =     0.34 Bohr mag/cell

     iteration # 47     ecut=    90.00 Ry     beta= 0.20
     Davidson diagonalization with overlap
     ethr =  7.10E-07,  avg # of iterations =  2.3

     total cpu time spent up to now is      479.0 secs

     total energy              =   -1317.05614353 Ry
     estimated scf accuracy    <       0.00031864 Ry

     total magnetization       =     0.16 Bohr mag/cell
     absolute magnetization    =     0.28 Bohr mag/cell

     iteration # 48     ecut=    90.00 Ry     beta= 0.20
     Davidson diagonalization with overlap
     ethr =  4.98E-07,  avg # of iterations =  3.6

     total cpu time spent up to now is      489.1 secs

     total energy              =   -1317.05636301 Ry
     estimated scf accuracy    <       0.00005652 Ry

     total magnetization       =     0.03 Bohr mag/cell
     absolute magnetization    =     0.22 Bohr mag/cell

     iteration # 49     ecut=    90.00 Ry     beta= 0.20
     Davidson diagonalization with overlap
     ethr =  8.83E-08,  avg # of iterations =  3.5

     total cpu time spent up to now is      499.5 secs

     total energy              =   -1317.05638944 Ry
     estimated scf accuracy    <       0.00005790 Ry

     total magnetization       =    -0.00 Bohr mag/cell
     absolute magnetization    =     0.22 Bohr mag/cell

     iteration # 50     ecut=    90.00 Ry     beta= 0.20
     Davidson diagonalization with overlap
     ethr =  8.83E-08,  avg # of iterations =  1.0

     total cpu time spent up to now is      507.5 secs

     total energy              =   -1317.05640359 Ry
     estimated scf accuracy    <       0.00003164 Ry

     total magnetization       =     0.01 Bohr mag/cell
     absolute magnetization    =     0.23 Bohr mag/cell

     iteration # 51     ecut=    90.00 Ry     beta= 0.20
     Davidson diagonalization with overlap
     ethr =  4.94E-08,  avg # of iterations =  1.2

     total cpu time spent up to now is      515.7 secs

     total energy              =   -1317.05640456 Ry
     estimated scf accuracy    <       0.00002709 Ry

     total magnetization       =     0.00 Bohr mag/cell
     absolute magnetization    =     0.24 Bohr mag/cell

     iteration # 52     ecut=    90.00 Ry     beta= 0.20
     Davidson diagonalization with overlap
     ethr =  4.23E-08,  avg # of iterations =  1.0

     total cpu time spent up to now is      524.1 secs

     total energy              =   -1317.05640789 Ry
     estimated scf accuracy    <       0.00002705 Ry

     total magnetization       =     0.00 Bohr mag/cell
     absolute magnetization    =     0.23 Bohr mag/cell

     iteration # 53     ecut=    90.00 Ry     beta= 0.20
     Davidson diagonalization with overlap
     ethr =  4.23E-08,  avg # of iterations =  1.0

     total cpu time spent up to now is      532.5 secs

     total energy              =   -1317.05640664 Ry
     estimated scf accuracy    <       0.00002803 Ry

     total magnetization       =     0.00 Bohr mag/cell
     absolute magnetization    =     0.24 Bohr mag/cell

     iteration # 54     ecut=    90.00 Ry     beta= 0.20
     Davidson diagonalization with overlap
     ethr =  4.23E-08,  avg # of iterations =  1.0

     total cpu time spent up to now is      540.9 secs

     total energy              =   -1317.05640081 Ry
     estimated scf accuracy    <       0.00002950 Ry

     total magnetization       =    -0.00 Bohr mag/cell
     absolute magnetization    =     0.23 Bohr mag/cell

     iteration # 55     ecut=    90.00 Ry     beta= 0.20
     Davidson diagonalization with overlap
     ethr =  4.23E-08,  avg # of iterations =  1.0

     total cpu time spent up to now is      549.2 secs

     total energy              =   -1317.05640568 Ry
     estimated scf accuracy    <       0.00002607 Ry

     total magnetization       =     0.00 Bohr mag/cell
     absolute magnetization    =     0.23 Bohr mag/cell

     iteration # 56     ecut=    90.00 Ry     beta= 0.20
     Davidson diagonalization with overlap
     ethr =  4.07E-08,  avg # of iterations =  1.0

     total cpu time spent up to now is      557.5 secs

     total energy              =   -1317.05640624 Ry
     estimated scf accuracy    <       0.00003174 Ry

     total magnetization       =     0.01 Bohr mag/cell
     absolute magnetization    =     0.24 Bohr mag/cell

     iteration # 57     ecut=    90.00 Ry     beta= 0.20
     Davidson diagonalization with overlap
     ethr =  4.07E-08,  avg # of iterations =  1.0

     total cpu time spent up to now is      565.9 secs

     total energy              =   -1317.05640603 Ry
     estimated scf accuracy    <       0.00002883 Ry

     total magnetization       =     0.01 Bohr mag/cell
     absolute magnetization    =     0.24 Bohr mag/cell

     iteration # 58     ecut=    90.00 Ry     beta= 0.20
     Davidson diagonalization with overlap
     ethr =  4.07E-08,  avg # of iterations =  1.0

     total cpu time spent up to now is      573.9 secs

     total energy              =   -1317.05640643 Ry
     estimated scf accuracy    <       0.00002819 Ry

     total magnetization       =     0.01 Bohr mag/cell
     absolute magnetization    =     0.23 Bohr mag/cell

     iteration # 59     ecut=    90.00 Ry     beta= 0.20
     Davidson diagonalization with overlap
     ethr =  4.07E-08,  avg # of iterations =  1.0

     total cpu time spent up to now is      581.8 secs

     total energy              =   -1317.05640364 Ry
     estimated scf accuracy    <       0.00002883 Ry

     total magnetization       =     0.01 Bohr mag/cell
     absolute magnetization    =     0.23 Bohr mag/cell

     iteration # 60     ecut=    90.00 Ry     beta= 0.20
     Davidson diagonalization with overlap
     ethr =  4.07E-08,  avg # of iterations =  1.0

     total cpu time spent up to now is      589.9 secs

     total energy              =   -1317.05639706 Ry
     estimated scf accuracy    <       0.00003480 Ry

     total magnetization       =     0.01 Bohr mag/cell
     absolute magnetization    =     0.23 Bohr mag/cell

     iteration # 61     ecut=    90.00 Ry     beta= 0.20
     Davidson diagonalization with overlap
     ethr =  4.07E-08,  avg # of iterations =  1.0

     total cpu time spent up to now is      598.0 secs

     total energy              =   -1317.05639432 Ry
     estimated scf accuracy    <       0.00002631 Ry

     total magnetization       =     0.01 Bohr mag/cell
     absolute magnetization    =     0.22 Bohr mag/cell

     iteration # 62     ecut=    90.00 Ry     beta= 0.20
     Davidson diagonalization with overlap
     ethr =  4.07E-08,  avg # of iterations =  1.0

     total cpu time spent up to now is      605.9 secs

     total energy              =   -1317.05634732 Ry
     estimated scf accuracy    <       0.00002390 Ry

     total magnetization       =     0.01 Bohr mag/cell
     absolute magnetization    =     0.22 Bohr mag/cell

     iteration # 63     ecut=    90.00 Ry     beta= 0.20
     Davidson diagonalization with overlap
     ethr =  3.73E-08,  avg # of iterations =  3.2

     total cpu time spent up to now is      615.9 secs

     total energy              =   -1317.05637144 Ry
     estimated scf accuracy    <       0.00001264 Ry

     total magnetization       =     0.02 Bohr mag/cell
     absolute magnetization    =     0.17 Bohr mag/cell

     iteration # 64     ecut=    90.00 Ry     beta= 0.20
     Davidson diagonalization with overlap
     ethr =  1.98E-08,  avg # of iterations =  1.8

     total cpu time spent up to now is      624.4 secs

     total energy              =   -1317.05633769 Ry
     estimated scf accuracy    <       0.00000993 Ry

     total magnetization       =     0.01 Bohr mag/cell
     absolute magnetization    =     0.16 Bohr mag/cell

     iteration # 65     ecut=    90.00 Ry     beta= 0.20
     Davidson diagonalization with overlap
     ethr =  1.55E-08,  avg # of iterations =  4.3

     total cpu time spent up to now is      635.7 secs

     total energy              =   -1317.05636535 Ry
     estimated scf accuracy    <       0.00000236 Ry

     total magnetization       =    -0.00 Bohr mag/cell
     absolute magnetization    =     0.14 Bohr mag/cell

     iteration # 66     ecut=    90.00 Ry     beta= 0.20
     Davidson diagonalization with overlap
     ethr =  3.69E-09,  avg # of iterations =  2.0

     total cpu time spent up to now is      644.5 secs

     total energy              =   -1317.05636567 Ry
     estimated scf accuracy    <       0.00000174 Ry

     total magnetization       =    -0.00 Bohr mag/cell
     absolute magnetization    =     0.14 Bohr mag/cell

     iteration # 67     ecut=    90.00 Ry     beta= 0.20
     Davidson diagonalization with overlap
     ethr =  2.72E-09,  avg # of iterations =  1.7

     total cpu time spent up to now is      653.1 secs

     total energy              =   -1317.05636555 Ry
     estimated scf accuracy    <       0.00000503 Ry

     total magnetization       =     0.00 Bohr mag/cell
     absolute magnetization    =     0.14 Bohr mag/cell

     iteration # 68     ecut=    90.00 Ry     beta= 0.20
     Davidson diagonalization with overlap
     ethr =  2.72E-09,  avg # of iterations =  1.7

     total cpu time spent up to now is      661.6 secs

     total energy              =   -1317.05636623 Ry
     estimated scf accuracy    <       0.00000100 Ry

     total magnetization       =     0.00 Bohr mag/cell
     absolute magnetization    =     0.14 Bohr mag/cell

     iteration # 69     ecut=    90.00 Ry     beta= 0.20
     Davidson diagonalization with overlap
     ethr =  1.57E-09,  avg # of iterations =  1.2

     total cpu time spent up to now is      669.7 secs

     total energy              =   -1317.05636674 Ry
     estimated scf accuracy    <       0.00000080 Ry

     total magnetization       =     0.00 Bohr mag/cell
     absolute magnetization    =     0.14 Bohr mag/cell

     iteration # 70     ecut=    90.00 Ry     beta= 0.20
     Davidson diagonalization with overlap
     ethr =  1.25E-09,  avg # of iterations =  1.8

     total cpu time spent up to now is      678.3 secs

     total energy              =   -1317.05636700 Ry
     estimated scf accuracy    <       0.00000087 Ry

     total magnetization       =     0.00 Bohr mag/cell
     absolute magnetization    =     0.14 Bohr mag/cell

     iteration # 71     ecut=    90.00 Ry     beta= 0.20
     Davidson diagonalization with overlap
     ethr =  1.25E-09,  avg # of iterations =  1.0

     total cpu time spent up to now is      686.3 secs

     total energy              =   -1317.05636720 Ry
     estimated scf accuracy    <       0.00000077 Ry

     total magnetization       =     0.00 Bohr mag/cell
     absolute magnetization    =     0.14 Bohr mag/cell

     iteration # 72     ecut=    90.00 Ry     beta= 0.20
     Davidson diagonalization with overlap
     ethr =  1.20E-09,  avg # of iterations =  1.0

     total cpu time spent up to now is      694.2 secs

     total energy              =   -1317.05636351 Ry
     estimated scf accuracy    <       0.00000076 Ry

     total magnetization       =     0.00 Bohr mag/cell
     absolute magnetization    =     0.15 Bohr mag/cell

     iteration # 73     ecut=    90.00 Ry     beta= 0.20
     Davidson diagonalization with overlap
     ethr =  1.19E-09,  avg # of iterations =  3.9

     total cpu time spent up to now is      704.7 secs

     total energy              =   -1317.05636455 Ry
     estimated scf accuracy    <       0.00000073 Ry

     total magnetization       =     0.00 Bohr mag/cell
     absolute magnetization    =     0.13 Bohr mag/cell

     iteration # 74     ecut=    90.00 Ry     beta= 0.20
     Davidson diagonalization with overlap
     ethr =  1.14E-09,  avg # of iterations =  2.3

     total cpu time spent up to now is      713.8 secs

     total energy              =   -1317.05635467 Ry
     estimated scf accuracy    <       0.00000070 Ry

     total magnetization       =     0.00 Bohr mag/cell
     absolute magnetization    =     0.12 Bohr mag/cell

     iteration # 75     ecut=    90.00 Ry     beta= 0.20
     Davidson diagonalization with overlap
     ethr =  1.09E-09,  avg # of iterations =  5.0

     total cpu time spent up to now is      727.0 secs

     total energy              =   -1317.05635996 Ry
     estimated scf accuracy    <       0.00000040 Ry

     total magnetization       =     0.01 Bohr mag/cell
     absolute magnetization    =     0.08 Bohr mag/cell

     iteration # 76     ecut=    90.00 Ry     beta= 0.20
     Davidson diagonalization with overlap
     ethr =  6.21E-10,  avg # of iterations =  4.7

     total cpu time spent up to now is      738.5 secs

     total energy              =   -1317.05636042 Ry
     estimated scf accuracy    <       0.00000041 Ry

     total magnetization       =     0.01 Bohr mag/cell
     absolute magnetization    =     0.06 Bohr mag/cell

     iteration # 77     ecut=    90.00 Ry     beta= 0.20
     Davidson diagonalization with overlap
     ethr =  6.21E-10,  avg # of iterations =  3.9

     total cpu time spent up to now is      748.9 secs

     total energy              =   -1317.05635946 Ry
     estimated scf accuracy    <       0.00000031 Ry

     total magnetization       =     0.01 Bohr mag/cell
     absolute magnetization    =     0.05 Bohr mag/cell

     iteration # 78     ecut=    90.00 Ry     beta= 0.20
     Davidson diagonalization with overlap
     ethr =  4.90E-10,  avg # of iterations =  4.5

     total cpu time spent up to now is      760.6 secs

     total energy              =   -1317.05636079 Ry
     estimated scf accuracy    <       0.00000027 Ry

     total magnetization       =     0.01 Bohr mag/cell
     absolute magnetization    =     0.04 Bohr mag/cell

     iteration # 79     ecut=    90.00 Ry     beta= 0.20
     Davidson diagonalization with overlap
     ethr =  4.17E-10,  avg # of iterations =  1.0

     total cpu time spent up to now is      768.5 secs

     total energy              =   -1317.05635933 Ry
     estimated scf accuracy    <       0.00000035 Ry

     total magnetization       =     0.01 Bohr mag/cell
     absolute magnetization    =     0.04 Bohr mag/cell

     iteration # 80     ecut=    90.00 Ry     beta= 0.20
     Davidson diagonalization with overlap
     ethr =  4.17E-10,  avg # of iterations =  4.9

     total cpu time spent up to now is      780.5 secs

     total energy              =   -1317.05636149 Ry
     estimated scf accuracy    <       0.00000019 Ry

     total magnetization       =     0.01 Bohr mag/cell
     absolute magnetization    =     0.05 Bohr mag/cell

     iteration # 81     ecut=    90.00 Ry     beta= 0.20
     Davidson diagonalization with overlap
     ethr =  2.92E-10,  avg # of iterations =  3.8

     total cpu time spent up to now is      790.9 secs

     total energy              =   -1317.05635757 Ry
     estimated scf accuracy    <       0.00000021 Ry

     total magnetization       =     0.01 Bohr mag/cell
     absolute magnetization    =     0.06 Bohr mag/cell

     iteration # 82     ecut=    90.00 Ry     beta= 0.20
     Davidson diagonalization with overlap
     ethr =  2.92E-10,  avg # of iterations =  5.8

     total cpu time spent up to now is      805.3 secs

     total energy              =   -1317.05636108 Ry
     estimated scf accuracy    <       0.00000018 Ry

     total magnetization       =     0.01 Bohr mag/cell
     absolute magnetization    =     0.04 Bohr mag/cell

     iteration # 83     ecut=    90.00 Ry     beta= 0.20
     Davidson diagonalization with overlap
     ethr =  2.80E-10,  avg # of iterations =  1.0

     total cpu time spent up to now is      813.2 secs

     total energy              =   -1317.05636094 Ry
     estimated scf accuracy    <       0.00000018 Ry

     total magnetization       =     0.01 Bohr mag/cell
     absolute magnetization    =     0.04 Bohr mag/cell

     iteration # 84     ecut=    90.00 Ry     beta= 0.20
     Davidson diagonalization with overlap
     ethr =  2.78E-10,  avg # of iterations =  1.2

     total cpu time spent up to now is      821.3 secs

     total energy              =   -1317.05636090 Ry
     estimated scf accuracy    <       0.00000020 Ry

     total magnetization       =     0.01 Bohr mag/cell
     absolute magnetization    =     0.04 Bohr mag/cell

     iteration # 85     ecut=    90.00 Ry     beta= 0.20
     Davidson diagonalization with overlap
     ethr =  2.78E-10,  avg # of iterations =  2.2

     total cpu time spent up to now is      830.2 secs

     total energy              =   -1317.05635908 Ry
     estimated scf accuracy    <       0.00000015 Ry

     total magnetization       =     0.01 Bohr mag/cell
     absolute magnetization    =     0.03 Bohr mag/cell

     iteration # 86     ecut=    90.00 Ry     beta= 0.20
     Davidson diagonalization with overlap
     ethr =  2.28E-10,  avg # of iterations =  5.3

     total cpu time spent up to now is      844.1 secs

     total energy              =   -1317.05636069 Ry
     estimated scf accuracy    <       0.00000010 Ry

     total magnetization       =     0.00 Bohr mag/cell
     absolute magnetization    =     0.02 Bohr mag/cell

     iteration # 87     ecut=    90.00 Ry     beta= 0.20
     Davidson diagonalization with overlap
     ethr =  1.61E-10,  avg # of iterations =  3.4

     total cpu time spent up to now is      854.2 secs

     total energy              =   -1317.05636082 Ry
     estimated scf accuracy    <       0.00000008 Ry

     total magnetization       =     0.00 Bohr mag/cell
     absolute magnetization    =     0.02 Bohr mag/cell

     iteration # 88     ecut=    90.00 Ry     beta= 0.20
     Davidson diagonalization with overlap
     ethr =  1.27E-10,  avg # of iterations =  1.9

     total cpu time spent up to now is      862.9 secs

     total energy              =   -1317.05636086 Ry
     estimated scf accuracy    <       0.00000011 Ry

     total magnetization       =     0.00 Bohr mag/cell
     absolute magnetization    =     0.02 Bohr mag/cell

     iteration # 89     ecut=    90.00 Ry     beta= 0.20
     Davidson diagonalization with overlap
     ethr =  1.27E-10,  avg # of iterations =  1.0

     total cpu time spent up to now is      870.9 secs

     total energy              =   -1317.05636076 Ry
     estimated scf accuracy    <       0.00000010 Ry

     total magnetization       =     0.00 Bohr mag/cell
     absolute magnetization    =     0.02 Bohr mag/cell

     iteration # 90     ecut=    90.00 Ry     beta= 0.20
     Davidson diagonalization with overlap
     ethr =  1.27E-10,  avg # of iterations =  2.5

     total cpu time spent up to now is      880.3 secs

     total energy              =   -1317.05635791 Ry
     estimated scf accuracy    <       0.00000006 Ry

     total magnetization       =     0.00 Bohr mag/cell
     absolute magnetization    =     0.02 Bohr mag/cell

     iteration # 91     ecut=    90.00 Ry     beta= 0.20
     Davidson diagonalization with overlap
     ethr =  9.86E-11,  avg # of iterations =  6.1

     total cpu time spent up to now is      896.6 secs

     total energy              =   -1317.05636025 Ry
     estimated scf accuracy    <       0.00000003 Ry

     total magnetization       =    -0.00 Bohr mag/cell
     absolute magnetization    =     0.02 Bohr mag/cell

     iteration # 92     ecut=    90.00 Ry     beta= 0.20
     Davidson diagonalization with overlap
     ethr =  5.46E-11,  avg # of iterations =  5.4

     total cpu time spent up to now is      910.2 secs

     total energy              =   -1317.05636040 Ry
     estimated scf accuracy    <       0.00000004 Ry

     total magnetization       =    -0.00 Bohr mag/cell
     absolute magnetization    =     0.02 Bohr mag/cell

     iteration # 93     ecut=    90.00 Ry     beta= 0.20
     Davidson diagonalization with overlap
     ethr =  5.46E-11,  avg # of iterations =  4.9

     total cpu time spent up to now is      922.1 secs

     total energy              =   -1317.05636073 Ry
     estimated scf accuracy    <       0.00000002 Ry

     total magnetization       =    -0.00 Bohr mag/cell
     absolute magnetization    =     0.02 Bohr mag/cell

     iteration # 94     ecut=    90.00 Ry     beta= 0.20
     Davidson diagonalization with overlap
     ethr =  2.56E-11,  avg # of iterations =  1.9

     total cpu time spent up to now is      930.9 secs

     total energy              =   -1317.05636055 Ry
     estimated scf accuracy    <       0.00000001 Ry

     total magnetization       =    -0.00 Bohr mag/cell
     absolute magnetization    =     0.02 Bohr mag/cell

     iteration # 95     ecut=    90.00 Ry     beta= 0.20
     Davidson diagonalization with overlap
     ethr =  1.79E-11,  avg # of iterations =  5.8

     total cpu time spent up to now is      945.6 secs

     total energy              =   -1317.05636071 Ry
     estimated scf accuracy    <       0.00000001 Ry

     total magnetization       =    -0.00 Bohr mag/cell
     absolute magnetization    =     0.02 Bohr mag/cell

     iteration # 96     ecut=    90.00 Ry     beta= 0.20
     Davidson diagonalization with overlap
     ethr =  1.65E-11,  avg # of iterations =  4.2

     Magnetic moment per site:
     atom:    1    charge:   14.4040    magn:   -0.0052    constr:    0.0000
     atom:    2    charge:   14.4040    magn:    0.0042    constr:    0.0000
     atom:    3    charge:   14.4040    magn:    0.0056    constr:    0.0000
     atom:    4    charge:   14.4041    magn:   -0.0051    constr:    0.0000

     total cpu time spent up to now is      956.2 secs

     End of self-consistent calculation

     Number of k-points >= 100: set verbosity='high' to print the bands.

     the Fermi energy is    19.7185 ev

!    total energy              =   -1317.05636075 Ry

     total all-electron energy =    -10182.242503 Ry
     estimated scf accuracy    <          9.4E-09 Ry
     smearing contrib. (-TS)   =      -0.00382634 Ry
     internal energy E=F+TS    =   -1317.05253441 Ry

     The total energy is F=E-TS. E is the sum of the following terms:
     one-electron contribution =    -414.18360603 Ry
     hartree contribution      =     251.85127549 Ry
     xc contribution           =    -138.87423306 Ry
     ewald contribution        =    -711.21551443 Ry
     one-center paw contrib.   =    -304.63045638 Ry

     total magnetization       =    -0.00 Bohr mag/cell
     absolute magnetization    =     0.02 Bohr mag/cell

     convergence has been achieved in  96 iterations

     Forces acting on atoms (cartesian axes, Ry/au):

     atom    1 type  1   force =     0.00090962   -0.00007438    0.00894147
     atom    2 type  1   force =    -0.00087652    0.00007480   -0.00898669
     atom    3 type  1   force =     0.00087116   -0.00007199    0.00900094
     atom    4 type  1   force =    -0.00090426    0.00007157   -0.00895572

     Total force =     0.018031     Total SCF correction =     0.000038


     Computing stress (Cartesian axis) and pressure

          total   stress  (Ry/bohr**3)                   (kbar)     P=     -107.34
  -0.00035106   0.00002108   0.00000562          -51.64        3.10        0.83
   0.00002108  -0.00092200   0.00000435            3.10     -135.63        0.64
   0.00000562   0.00000435  -0.00091594            0.83        0.64     -134.74


     BFGS Geometry Optimization
     Energy error            =      0.0E+00
     Gradient error          =      9.0E-03
     Cell gradient error     =      9.2E-04


     number of scf cycles    =   1
     number of bfgs steps    =   0

     enthalpy new            =   -1317.0563607501 Ry

     new trust radius        =       0.0781911692 bohr
     new conv_thr            =       0.0000000100 Ry

     new unit-cell volume =    272.05997 a.u.^3 (    40.31513 Ang^3 )
     density =      9.20079 g/cm^3

CELL_PARAMETERS (angstrom)
   2.420562167   0.001287066   0.000343010
  -0.007150099   3.884928503   0.000430745
  -0.003328334  -0.001368117   4.287146039

ATOMIC_POSITIONS (angstrom)
Fe            2.1117153858        1.9432991695        1.2221135422
Fe            2.1093275011        3.8846398409        4.1381406077
Fe            0.8998663001        1.9419612677        3.3653871923
Fe            0.9007226795        3.8846826014        1.9943735160



     Writing output data file ./pwscf.save/
     NEW-OLD atomic charge density approx. for the potential

     Check: negative core charge=   -0.000008
     extrapolated charge   60.36122, renormalised to   64.00000
     Generating pointlists ...
     new r_m :   0.4016 (alat units)  1.8534 (a.u.) for type    1

     total cpu time spent up to now is      967.7 secs

     Self-consistent Calculation

     iteration #  1     ecut=    90.00 Ry     beta= 0.20
     Davidson diagonalization with overlap
     c_bands:  1 eigenvalues not converged
     ethr =  1.00E-06,  avg # of iterations = 17.4

     total cpu time spent up to now is     1022.1 secs

     total energy              =   -1312.42006241 Ry
     estimated scf accuracy    <       7.58995231 Ry

     total magnetization       =    -0.00 Bohr mag/cell
     absolute magnetization    =     0.03 Bohr mag/cell

     iteration #  2     ecut=    90.00 Ry     beta= 0.20
     Davidson diagonalization with overlap
     ethr =  1.00E-02,  avg # of iterations =  3.7

     total cpu time spent up to now is     1033.7 secs

     total energy              =   -1317.23652333 Ry
     estimated scf accuracy    <       2.77614494 Ry

     total magnetization       =    -0.00 Bohr mag/cell
     absolute magnetization    =     0.02 Bohr mag/cell

     iteration #  3     ecut=    90.00 Ry     beta= 0.20
     Davidson diagonalization with overlap
     ethr =  4.34E-03,  avg # of iterations =  1.8

     total cpu time spent up to now is     1042.4 secs

     total energy              =   -1316.88726293 Ry
     estimated scf accuracy    <       1.27326628 Ry

     total magnetization       =    -0.00 Bohr mag/cell
     absolute magnetization    =     0.02 Bohr mag/cell

     iteration #  4     ecut=    90.00 Ry     beta= 0.20
     Davidson diagonalization with overlap
     ethr =  1.99E-03,  avg # of iterations =  2.2

     total cpu time spent up to now is     1052.2 secs

     total energy              =   -1317.04530310 Ry
     estimated scf accuracy    <       0.06855109 Ry

     total magnetization       =    -0.00 Bohr mag/cell
     absolute magnetization    =     0.02 Bohr mag/cell

     iteration #  5     ecut=    90.00 Ry     beta= 0.20
     Davidson diagonalization with overlap
     ethr =  1.07E-04,  avg # of iterations =  4.1

     total cpu time spent up to now is     1062.7 secs

     total energy              =   -1317.06261365 Ry
     estimated scf accuracy    <       0.00055373 Ry

     total magnetization       =    -0.00 Bohr mag/cell
     absolute magnetization    =     0.02 Bohr mag/cell

     iteration #  6     ecut=    90.00 Ry     beta= 0.20
     Davidson diagonalization with overlap
     ethr =  8.65E-07,  avg # of iterations =  7.6

     total cpu time spent up to now is     1084.0 secs

     total energy              =   -1317.07076021 Ry
     estimated scf accuracy    <       0.03014491 Ry

     total magnetization       =    -0.00 Bohr mag/cell
     absolute magnetization    =     0.02 Bohr mag/cell

     iteration #  7     ecut=    90.00 Ry     beta= 0.20
     Davidson diagonalization with overlap
     ethr =  8.65E-07,  avg # of iterations =  3.3

     total cpu time spent up to now is     1094.6 secs

     total energy              =   -1317.07158470 Ry
     estimated scf accuracy    <       0.04262950 Ry

     total magnetization       =    -0.00 Bohr mag/cell
     absolute magnetization    =     0.02 Bohr mag/cell

     iteration #  8     ecut=    90.00 Ry     beta= 0.20
     Davidson diagonalization with overlap
     ethr =  8.65E-07,  avg # of iterations =  1.0

     total cpu time spent up to now is     1102.6 secs

     total energy              =   -1317.05933996 Ry
     estimated scf accuracy    <       0.04553014 Ry

     total magnetization       =    -0.00 Bohr mag/cell
     absolute magnetization    =     0.02 Bohr mag/cell

     iteration #  9     ecut=    90.00 Ry     beta= 0.20
     Davidson diagonalization with overlap
     ethr =  8.65E-07,  avg # of iterations =  6.3

     total cpu time spent up to now is     1121.6 secs

     total energy              =   -1317.06128947 Ry
     estimated scf accuracy    <       0.00597282 Ry

     total magnetization       =    -0.00 Bohr mag/cell
     absolute magnetization    =     0.02 Bohr mag/cell

     iteration # 10     ecut=    90.00 Ry     beta= 0.20
     Davidson diagonalization with overlap
     ethr =  8.65E-07,  avg # of iterations =  4.0

     total cpu time spent up to now is     1134.8 secs

     total energy              =   -1317.06095791 Ry
     estimated scf accuracy    <       0.00128986 Ry

     total magnetization       =    -0.00 Bohr mag/cell
     absolute magnetization    =     0.02 Bohr mag/cell

     iteration # 11     ecut=    90.00 Ry     beta= 0.20
     Davidson diagonalization with overlap
     ethr =  8.65E-07,  avg # of iterations =  5.3

     total cpu time spent up to now is     1152.4 secs

     total energy              =   -1317.06111826 Ry
     estimated scf accuracy    <       0.00340145 Ry

     total magnetization       =    -0.00 Bohr mag/cell
     absolute magnetization    =     0.02 Bohr mag/cell

     iteration # 12     ecut=    90.00 Ry     beta= 0.20
     Davidson diagonalization with overlap
     ethr =  8.65E-07,  avg # of iterations =  3.7

     total cpu time spent up to now is     1163.8 secs

     total energy              =   -1317.06141659 Ry
     estimated scf accuracy    <       0.00018811 Ry

     total magnetization       =    -0.00 Bohr mag/cell
     absolute magnetization    =     0.02 Bohr mag/cell

     iteration # 13     ecut=    90.00 Ry     beta= 0.20
     Davidson diagonalization with overlap
     ethr =  2.94E-07,  avg # of iterations =  3.1

     total cpu time spent up to now is     1175.6 secs

     total energy              =   -1317.06146794 Ry
     estimated scf accuracy    <       0.00001492 Ry

     total magnetization       =    -0.00 Bohr mag/cell
     absolute magnetization    =     0.02 Bohr mag/cell

     iteration # 14     ecut=    90.00 Ry     beta= 0.20
     Davidson diagonalization with overlap
     ethr =  2.33E-08,  avg # of iterations =  3.7

     total cpu time spent up to now is     1186.5 secs

     total energy              =   -1317.06147375 Ry
     estimated scf accuracy    <       0.00000781 Ry

     total magnetization       =    -0.00 Bohr mag/cell
     absolute magnetization    =     0.02 Bohr mag/cell

     iteration # 15     ecut=    90.00 Ry     beta= 0.20
     Davidson diagonalization with overlap
     ethr =  1.22E-08,  avg # of iterations =  1.7

     total cpu time spent up to now is     1195.0 secs

     total energy              =   -1317.06147463 Ry
     estimated scf accuracy    <       0.00000622 Ry

     total magnetization       =    -0.00 Bohr mag/cell
     absolute magnetization    =     0.02 Bohr mag/cell

     iteration # 16     ecut=    90.00 Ry     beta= 0.20
     Davidson diagonalization with overlap
     ethr =  9.72E-09,  avg # of iterations =  1.1

     total cpu time spent up to now is     1203.0 secs

     total energy              =   -1317.06147278 Ry
     estimated scf accuracy    <       0.00000482 Ry

     total magnetization       =    -0.00 Bohr mag/cell
     absolute magnetization    =     0.02 Bohr mag/cell

     iteration # 17     ecut=    90.00 Ry     beta= 0.20
     Davidson diagonalization with overlap
     ethr =  7.53E-09,  avg # of iterations =  2.3

     total cpu time spent up to now is     1213.4 secs

     total energy              =   -1317.06147381 Ry
     estimated scf accuracy    <       0.00000006 Ry

     total magnetization       =    -0.00 Bohr mag/cell
     absolute magnetization    =     0.02 Bohr mag/cell

     iteration # 18     ecut=    90.00 Ry     beta= 0.20
     Davidson diagonalization with overlap
     ethr =  9.11E-11,  avg # of iterations =  7.6

     total cpu time spent up to now is     1235.0 secs

     total energy              =   -1317.06147370 Ry
     estimated scf accuracy    <       0.00000076 Ry

     total magnetization       =    -0.00 Bohr mag/cell
     absolute magnetization    =     0.02 Bohr mag/cell

     iteration # 19     ecut=    90.00 Ry     beta= 0.20
     Davidson diagonalization with overlap
     ethr =  9.11E-11,  avg # of iterations =  5.6

     total cpu time spent up to now is     1251.5 secs

     total energy              =   -1317.06147391 Ry
     estimated scf accuracy    <       0.00000013 Ry

     total magnetization       =    -0.00 Bohr mag/cell
     absolute magnetization    =     0.02 Bohr mag/cell

     iteration # 20     ecut=    90.00 Ry     beta= 0.20
     Davidson diagonalization with overlap
     ethr =  9.11E-11,  avg # of iterations =  2.4

     total cpu time spent up to now is     1261.4 secs

     total energy              =   -1317.06147390 Ry
     estimated scf accuracy    <       0.00000005 Ry

     total magnetization       =    -0.00 Bohr mag/cell
     absolute magnetization    =     0.02 Bohr mag/cell

     iteration # 21     ecut=    90.00 Ry     beta= 0.20
     Davidson diagonalization with overlap
     ethr =  7.52E-11,  avg # of iterations =  3.6

     total cpu time spent up to now is     1271.9 secs

     total energy              =   -1317.06147391 Ry
     estimated scf accuracy    <       0.00000007 Ry

     total magnetization       =    -0.00 Bohr mag/cell
     absolute magnetization    =     0.02 Bohr mag/cell

     iteration # 22     ecut=    90.00 Ry     beta= 0.20
     Davidson diagonalization with overlap
     ethr =  7.52E-11,  avg # of iterations =  2.3

     total cpu time spent up to now is     1281.8 secs

     total energy              =   -1317.06147392 Ry
     estimated scf accuracy    <       0.00000001 Ry

     total magnetization       =    -0.00 Bohr mag/cell
     absolute magnetization    =     0.02 Bohr mag/cell

     iteration # 23     ecut=    90.00 Ry     beta= 0.20
     Davidson diagonalization with overlap
     ethr =  2.06E-11,  avg # of iterations =  1.5

     total cpu time spent up to now is     1290.1 secs

     total energy              =   -1317.06147390 Ry
     estimated scf accuracy    <       0.00000001 Ry

     total magnetization       =    -0.00 Bohr mag/cell
     absolute magnetization    =     0.02 Bohr mag/cell

     iteration # 24     ecut=    90.00 Ry     beta= 0.20
     Davidson diagonalization with overlap
     ethr =  2.00E-11,  avg # of iterations =  4.9

     total cpu time spent up to now is     1303.9 secs

     total energy              =   -1317.06147394 Ry
     estimated scf accuracy    <       0.00000009 Ry

     total magnetization       =    -0.00 Bohr mag/cell
     absolute magnetization    =     0.02 Bohr mag/cell

     iteration # 25     ecut=    90.00 Ry     beta= 0.20
     Davidson diagonalization with overlap
     ethr =  2.00E-11,  avg # of iterations =  1.0

     total cpu time spent up to now is     1311.8 secs

     total energy              =   -1317.06147392 Ry
     estimated scf accuracy    <       0.00000009 Ry

     total magnetization       =    -0.00 Bohr mag/cell
     absolute magnetization    =     0.02 Bohr mag/cell

     iteration # 26     ecut=    90.00 Ry     beta= 0.20
     Davidson diagonalization with overlap
     ethr =  2.00E-11,  avg # of iterations =  2.8

     total cpu time spent up to now is     1321.8 secs

     total energy              =   -1317.06147392 Ry
     estimated scf accuracy    <       0.00000003 Ry

     total magnetization       =    -0.00 Bohr mag/cell
     absolute magnetization    =     0.02 Bohr mag/cell

     iteration # 27     ecut=    90.00 Ry     beta= 0.20
     Davidson diagonalization with overlap
     ethr =  2.00E-11,  avg # of iterations =  1.0

     total cpu time spent up to now is     1329.7 secs

     total energy              =   -1317.06147392 Ry
     estimated scf accuracy    <       0.00000003 Ry

     total magnetization       =    -0.00 Bohr mag/cell
     absolute magnetization    =     0.02 Bohr mag/cell

     iteration # 28     ecut=    90.00 Ry     beta= 0.20
     Davidson diagonalization with overlap
     ethr =  2.00E-11,  avg # of iterations =  1.5

     total cpu time spent up to now is     1338.0 secs

     total energy              =   -1317.06147391 Ry
     estimated scf accuracy    <       0.00000002 Ry

     total magnetization       =    -0.00 Bohr mag/cell
     absolute magnetization    =     0.02 Bohr mag/cell

     iteration # 29     ecut=    90.00 Ry     beta= 0.20
     Davidson diagonalization with overlap
     ethr =  2.00E-11,  avg # of iterations =  1.6

     total cpu time spent up to now is     1346.4 secs

     total energy              =   -1317.06147390 Ry
     estimated scf accuracy    <       0.00000001 Ry

     total magnetization       =    -0.00 Bohr mag/cell
     absolute magnetization    =     0.02 Bohr mag/cell

     iteration # 30     ecut=    90.00 Ry     beta= 0.20
     Davidson diagonalization with overlap
     ethr =  2.00E-11,  avg # of iterations =  1.2

     Magnetic moment per site:
     atom:    1    charge:   14.3436    magn:   -0.0045    constr:    0.0000
     atom:    2    charge:   14.3436    magn:    0.0033    constr:    0.0000
     atom:    3    charge:   14.3436    magn:    0.0051    constr:    0.0000
     atom:    4    charge:   14.3437    magn:   -0.0041    constr:    0.0000

     total cpu time spent up to now is     1354.4 secs

     End of self-consistent calculation

     Number of k-points >= 100: set verbosity='high' to print the bands.

     the Fermi energy is    21.0765 ev

!    total energy              =   -1317.06147390 Ry

     total all-electron energy =    -10182.247616 Ry
     estimated scf accuracy    <          9.9E-09 Ry
     smearing contrib. (-TS)   =      -0.00369239 Ry
     internal energy E=F+TS    =   -1317.05778151 Ry

     The total energy is F=E-TS. E is the sum of the following terms:
     one-electron contribution =    -393.47501177 Ry
     hartree contribution      =     244.54878954 Ry
     xc contribution           =    -139.06767854 Ry
     ewald contribution        =    -724.42631105 Ry
     one-center paw contrib.   =    -304.63756969 Ry

     total magnetization       =    -0.00 Bohr mag/cell
     absolute magnetization    =     0.02 Bohr mag/cell

     convergence has been achieved in  30 iterations

     Forces acting on atoms (cartesian axes, Ry/au):

     atom    1 type  1   force =     0.00081586   -0.00006994    0.00930768
     atom    2 type  1   force =    -0.00078749    0.00006891   -0.00936416
     atom    3 type  1   force =     0.00077919   -0.00006602    0.00939210
     atom    4 type  1   force =    -0.00080756    0.00006705   -0.00933562

     Total force =     0.018768     Total SCF correction =     0.000068


     Computing stress (Cartesian axis) and pressure

          total   stress  (Ry/bohr**3)                   (kbar)     P=       46.19
   0.00049348   0.00001414   0.00000339           72.59        2.08        0.50
   0.00001414   0.00026577   0.00000243            2.08       39.10        0.36
   0.00000339   0.00000243   0.00018281            0.50        0.36       26.89

     Energy error            =      5.1E-03
     Gradient error          =      9.4E-03
     Cell gradient error     =      4.9E-04


     number of scf cycles    =   2
     number of bfgs steps    =   1

     enthalpy old            =   -1317.0563607501 Ry
     enthalpy new            =   -1317.0614738968 Ry

     CASE: enthalpy_new < enthalpy_old

     new trust radius        =       0.0285302509 bohr
     new conv_thr            =       0.0000000094 Ry

     new unit-cell volume =    275.85488 a.u.^3 (    40.87748 Ang^3 )
     density =      9.07422 g/cm^3

CELL_PARAMETERS (angstrom)
   2.441483258   0.002019159   0.000521450
  -0.006031641   3.898234886   0.000643210
  -0.003042041  -0.001141260   4.294985175

ATOMIC_POSITIONS (angstrom)
Fe            2.1310181512        1.9506284128        1.2286320509
Fe            2.1286846304        3.8988345246        4.1420280545
Fe            0.9088359745        1.9490395125        3.3757714833
Fe            0.9094669224        3.8983969524        1.9942646026



     Writing output data file ./pwscf.save/
     NEW-OLD atomic charge density approx. for the potential

     Check: negative core charge=   -0.000009
     extrapolated charge   64.88042, renormalised to   64.00000
     Generating pointlists ...

     total cpu time spent up to now is     1366.1 secs

     Self-consistent Calculation

     iteration #  1     ecut=    90.00 Ry     beta= 0.20
     Davidson diagonalization with overlap
     ethr =  1.00E-06,  avg # of iterations = 11.9

     total cpu time spent up to now is     1403.0 secs

     total energy              =   -1316.79213696 Ry
     estimated scf accuracy    <       0.42921201 Ry

     total magnetization       =    -0.00 Bohr mag/cell
     absolute magnetization    =     0.02 Bohr mag/cell

     iteration #  2     ecut=    90.00 Ry     beta= 0.20
     Davidson diagonalization with overlap
     ethr =  6.71E-04,  avg # of iterations =  3.8

     total cpu time spent up to now is     1414.0 secs

     total energy              =   -1317.06624923 Ry
     estimated scf accuracy    <       0.21455918 Ry

     total magnetization       =    -0.00 Bohr mag/cell
     absolute magnetization    =     0.02 Bohr mag/cell

     iteration #  3     ecut=    90.00 Ry     beta= 0.20
     Davidson diagonalization with overlap
     ethr =  3.35E-04,  avg # of iterations =  2.0

     total cpu time spent up to now is     1422.7 secs

     total energy              =   -1317.06184141 Ry
     estimated scf accuracy    <       0.07698952 Ry

     total magnetization       =    -0.00 Bohr mag/cell
     absolute magnetization    =     0.02 Bohr mag/cell

     iteration #  4     ecut=    90.00 Ry     beta= 0.20
     Davidson diagonalization with overlap
     ethr =  1.20E-04,  avg # of iterations =  2.0

     total cpu time spent up to now is     1431.6 secs

     total energy              =   -1317.06194619 Ry
     estimated scf accuracy    <       0.02662432 Ry

     total magnetization       =    -0.00 Bohr mag/cell
     absolute magnetization    =     0.02 Bohr mag/cell

     iteration #  5     ecut=    90.00 Ry     beta= 0.20
     Davidson diagonalization with overlap
     ethr =  4.16E-05,  avg # of iterations =  2.4

     total cpu time spent up to now is     1440.5 secs

     total energy              =   -1317.06333985 Ry
     estimated scf accuracy    <       0.00744452 Ry

     total magnetization       =    -0.00 Bohr mag/cell
     absolute magnetization    =     0.02 Bohr mag/cell

     iteration #  6     ecut=    90.00 Ry     beta= 0.20
     Davidson diagonalization with overlap
     ethr =  1.16E-05,  avg # of iterations =  2.3

     total cpu time spent up to now is     1449.5 secs

     total energy              =   -1317.06386860 Ry
     estimated scf accuracy    <       0.00590613 Ry

     total magnetization       =    -0.00 Bohr mag/cell
     absolute magnetization    =     0.02 Bohr mag/cell

     iteration #  7     ecut=    90.00 Ry     beta= 0.20
     Davidson diagonalization with overlap
     ethr =  9.23E-06,  avg # of iterations =  1.0

     total cpu time spent up to now is     1457.4 secs

     total energy              =   -1317.06373195 Ry
     estimated scf accuracy    <       0.00640786 Ry

     total magnetization       =    -0.00 Bohr mag/cell
     absolute magnetization    =     0.02 Bohr mag/cell

     iteration #  8     ecut=    90.00 Ry     beta= 0.20
     Davidson diagonalization with overlap
     ethr =  9.23E-06,  avg # of iterations =  1.0

     total cpu time spent up to now is     1465.3 secs

     total energy              =   -1317.06317633 Ry
     estimated scf accuracy    <       0.00544650 Ry

     total magnetization       =    -0.00 Bohr mag/cell
     absolute magnetization    =     0.02 Bohr mag/cell

     iteration #  9     ecut=    90.00 Ry     beta= 0.20
     Davidson diagonalization with overlap
     ethr =  8.51E-06,  avg # of iterations =  1.0

     total cpu time spent up to now is     1473.2 secs

     total energy              =   -1317.06194410 Ry
     estimated scf accuracy    <       0.00309312 Ry

     total magnetization       =    -0.00 Bohr mag/cell
     absolute magnetization    =     0.02 Bohr mag/cell

     iteration # 10     ecut=    90.00 Ry     beta= 0.20
     Davidson diagonalization with overlap
     ethr =  4.83E-06,  avg # of iterations =  3.1

     total cpu time spent up to now is     1483.3 secs

     total energy              =   -1317.06258595 Ry
     estimated scf accuracy    <       0.00001530 Ry

     total magnetization       =    -0.00 Bohr mag/cell
     absolute magnetization    =     0.02 Bohr mag/cell

     iteration # 11     ecut=    90.00 Ry     beta= 0.20
     Davidson diagonalization with overlap
     ethr =  2.39E-08,  avg # of iterations =  6.9

     total cpu time spent up to now is     1503.5 secs

     total energy              =   -1317.06262252 Ry
     estimated scf accuracy    <       0.00009312 Ry

     total magnetization       =    -0.00 Bohr mag/cell
     absolute magnetization    =     0.02 Bohr mag/cell

     iteration # 12     ecut=    90.00 Ry     beta= 0.20
     Davidson diagonalization with overlap
     ethr =  2.39E-08,  avg # of iterations =  2.2

     total cpu time spent up to now is     1513.3 secs

     total energy              =   -1317.06260654 Ry
     estimated scf accuracy    <       0.00004183 Ry

     total magnetization       =    -0.00 Bohr mag/cell
     absolute magnetization    =     0.02 Bohr mag/cell

     iteration # 13     ecut=    90.00 Ry     beta= 0.20
     Davidson diagonalization with overlap
     ethr =  2.39E-08,  avg # of iterations =  4.1

     total cpu time spent up to now is     1524.2 secs

     total energy              =   -1317.06261427 Ry
     estimated scf accuracy    <       0.00000882 Ry

     total magnetization       =    -0.00 Bohr mag/cell
     absolute magnetization    =     0.02 Bohr mag/cell

     iteration # 14     ecut=    90.00 Ry     beta= 0.20
     Davidson diagonalization with overlap
     ethr =  1.38E-08,  avg # of iterations =  3.1

     total cpu time spent up to now is     1534.4 secs

     total energy              =   -1317.06261433 Ry
     estimated scf accuracy    <       0.00000717 Ry

     total magnetization       =    -0.00 Bohr mag/cell
     absolute magnetization    =     0.01 Bohr mag/cell

     iteration # 15     ecut=    90.00 Ry     beta= 0.20
     Davidson diagonalization with overlap
     ethr =  1.12E-08,  avg # of iterations =  2.2

     total cpu time spent up to now is     1544.2 secs

     total energy              =   -1317.06261488 Ry
     estimated scf accuracy    <       0.00000094 Ry

     total magnetization       =    -0.00 Bohr mag/cell
     absolute magnetization    =     0.01 Bohr mag/cell

     iteration # 16     ecut=    90.00 Ry     beta= 0.20
     Davidson diagonalization with overlap
     ethr =  1.47E-09,  avg # of iterations =  3.6

     total cpu time spent up to now is     1556.9 secs

     total energy              =   -1317.06261489 Ry
     estimated scf accuracy    <       0.00000071 Ry

     total magnetization       =    -0.00 Bohr mag/cell
     absolute magnetization    =     0.01 Bohr mag/cell

     iteration # 17     ecut=    90.00 Ry     beta= 0.20
     Davidson diagonalization with overlap
     ethr =  1.11E-09,  avg # of iterations =  2.1

     total cpu time spent up to now is     1566.6 secs

     total energy              =   -1317.06261497 Ry
     estimated scf accuracy    <       0.00000006 Ry

     total magnetization       =    -0.00 Bohr mag/cell
     absolute magnetization    =     0.01 Bohr mag/cell

     iteration # 18     ecut=    90.00 Ry     beta= 0.20
     Davidson diagonalization with overlap
     ethr =  9.05E-11,  avg # of iterations =  4.3

     total cpu time spent up to now is     1579.1 secs

     total energy              =   -1317.06261496 Ry
     estimated scf accuracy    <       0.00000020 Ry

     total magnetization       =    -0.00 Bohr mag/cell
     absolute magnetization    =     0.01 Bohr mag/cell

     iteration # 19     ecut=    90.00 Ry     beta= 0.20
     Davidson diagonalization with overlap
     ethr =  9.05E-11,  avg # of iterations =  2.1

     total cpu time spent up to now is     1589.0 secs

     total energy              =   -1317.06261495 Ry
     estimated scf accuracy    <       0.00000006 Ry

     total magnetization       =    -0.00 Bohr mag/cell
     absolute magnetization    =     0.01 Bohr mag/cell

     iteration # 20     ecut=    90.00 Ry     beta= 0.20
     Davidson diagonalization with overlap
     ethr =  9.05E-11,  avg # of iterations =  2.6

[...]
        k(   44) = (   0.3970957   0.1258354   0.0002096), wk =   0.0160000
        k(   45) = (   0.3970432   0.1258109   0.1145603), wk =   0.0160000
        k(   46) = (   0.3969906   0.1257864   0.2289110), wk =   0.0160000
        k(   47) = (   0.3972009   0.1258844  -0.2284918), wk =   0.0160000
        k(   48) = (   0.3971483   0.1258599  -0.1141411), wk =   0.0160000
        k(   49) = (   0.3969488   0.2511922   0.0002369), wk =   0.0160000
        k(   50) = (   0.3968962   0.2511676   0.1145876), wk =   0.0160000
        k(   51) = (   0.3968436   0.2511431   0.2289383), wk =   0.0160000
        k(   52) = (   0.3970539   0.2512412  -0.2284644), wk =   0.0160000
        k(   53) = (   0.3970014   0.2512167  -0.1141137), wk =   0.0160000
        k(   54) = (   0.3975366  -0.2502349   0.0001276), wk =   0.0160000
        k(   55) = (   0.3974840  -0.2502594   0.1144783), wk =   0.0160000
        k(   56) = (   0.3974314  -0.2502840   0.2288290), wk =   0.0160000
        k(   57) = (   0.3976417  -0.2501859  -0.2285738), wk =   0.0160000
        k(   58) = (   0.3975892  -0.2502104  -0.1142231), wk =   0.0160000
        k(   59) = (   0.3973896  -0.1248782   0.0001549), wk =   0.0160000
        k(   60) = (   0.3973371  -0.1249027   0.1145056), wk =   0.0160000
        k(   61) = (   0.3972845  -0.1249272   0.2288563), wk =   0.0160000
        k(   62) = (   0.3974948  -0.1248291  -0.2285464), wk =   0.0160000
        k(   63) = (   0.3974422  -0.1248536  -0.1141957), wk =   0.0160000

     Dense  grid:   165423 G-vectors     FFT dimensions: (  50,  80,  90)

     Smooth grid:    31893 G-vectors     FFT dimensions: (  30,  45,  50)

     Estimated max dynamical RAM per process >     247.14 MB

     Estimated total dynamical RAM >     988.55 MB

     Check: negative core charge=   -0.000011
     Generating pointlists ...

     Initial potential from superposition of free atoms

     starting charge   63.99825, renormalised to   64.00000
     Starting wfcs are   52 randomized atomic wfcs
     Checking if some PAW data can be deallocated... 

     total cpu time spent up to now is     3299.2 secs

     Self-consistent Calculation

     iteration #  1     ecut=    90.00 Ry     beta= 0.20
     Davidson diagonalization with overlap
     c_bands:  1 eigenvalues not converged
     c_bands:  1 eigenvalues not converged
     ethr =  1.00E-06,  avg # of iterations = 14.6

     total cpu time spent up to now is     3343.2 secs

     total energy              =   -1317.03661131 Ry
     estimated scf accuracy    <       0.25845943 Ry

     total magnetization       =     0.00 Bohr mag/cell
     absolute magnetization    =     0.00 Bohr mag/cell

     iteration #  2     ecut=    90.00 Ry     beta= 0.20
     Davidson diagonalization with overlap
     ethr =  4.04E-04,  avg # of iterations =  2.0

     total cpu time spent up to now is     3352.3 secs

     total energy              =   -1317.04940192 Ry
     estimated scf accuracy    <       0.02787506 Ry

     total magnetization       =     0.00 Bohr mag/cell
     absolute magnetization    =     0.01 Bohr mag/cell

     iteration #  3     ecut=    90.00 Ry     beta= 0.20
     Davidson diagonalization with overlap
     ethr =  4.36E-05,  avg # of iterations =  3.9

     total cpu time spent up to now is     3363.5 secs

     total energy              =   -1317.06008065 Ry
     estimated scf accuracy    <       0.01087174 Ry

     total magnetization       =     0.00 Bohr mag/cell
     absolute magnetization    =     0.00 Bohr mag/cell

     iteration #  4     ecut=    90.00 Ry     beta= 0.20
     Davidson diagonalization with overlap
     ethr =  1.70E-05,  avg # of iterations =  1.1

     total cpu time spent up to now is     3371.1 secs

     total energy              =   -1317.05933869 Ry
     estimated scf accuracy    <       0.00397785 Ry

     total magnetization       =     0.00 Bohr mag/cell
     absolute magnetization    =     0.00 Bohr mag/cell

     iteration #  5     ecut=    90.00 Ry     beta= 0.20
     Davidson diagonalization with overlap
     ethr =  6.22E-06,  avg # of iterations =  3.5

     total cpu time spent up to now is     3380.9 secs

     total energy              =   -1317.06176033 Ry
     estimated scf accuracy    <       0.00372655 Ry

     total magnetization       =     0.00 Bohr mag/cell
     absolute magnetization    =     0.00 Bohr mag/cell

     iteration #  6     ecut=    90.00 Ry     beta= 0.20
     Davidson diagonalization with overlap
     ethr =  5.82E-06,  avg # of iterations =  2.2

     total cpu time spent up to now is     3390.2 secs

     total energy              =   -1317.06283092 Ry
     estimated scf accuracy    <       0.00468322 Ry

     total magnetization       =     0.00 Bohr mag/cell
     absolute magnetization    =     0.00 Bohr mag/cell

     iteration #  7     ecut=    90.00 Ry     beta= 0.20
     Davidson diagonalization with overlap
     ethr =  5.82E-06,  avg # of iterations =  1.9

     total cpu time spent up to now is     3398.3 secs

     total energy              =   -1317.06292821 Ry
     estimated scf accuracy    <       0.00063053 Ry

     total magnetization       =     0.00 Bohr mag/cell
     absolute magnetization    =     0.00 Bohr mag/cell

     iteration #  8     ecut=    90.00 Ry     beta= 0.20
     Davidson diagonalization with overlap
     ethr =  9.85E-07,  avg # of iterations =  2.0

     total cpu time spent up to now is     3407.5 secs

     total energy              =   -1317.06304308 Ry
     estimated scf accuracy    <       0.00002885 Ry

     total magnetization       =     0.00 Bohr mag/cell
     absolute magnetization    =     0.00 Bohr mag/cell

     iteration #  9     ecut=    90.00 Ry     beta= 0.20
     Davidson diagonalization with overlap
     ethr =  4.51E-08,  avg # of iterations =  3.4

     total cpu time spent up to now is     3418.9 secs

     total energy              =   -1317.06309585 Ry
     estimated scf accuracy    <       0.00003837 Ry

     total magnetization       =     0.00 Bohr mag/cell
     absolute magnetization    =     0.00 Bohr mag/cell

     iteration # 10     ecut=    90.00 Ry     beta= 0.20
     Davidson diagonalization with overlap
     ethr =  4.51E-08,  avg # of iterations =  2.1

     total cpu time spent up to now is     3427.9 secs

     total energy              =   -1317.06317103 Ry
     estimated scf accuracy    <       0.00004095 Ry

     total magnetization       =     0.00 Bohr mag/cell
     absolute magnetization    =     0.00 Bohr mag/cell

     iteration # 11     ecut=    90.00 Ry     beta= 0.20
     Davidson diagonalization with overlap
     ethr =  4.51E-08,  avg # of iterations =  2.6

     total cpu time spent up to now is     3437.3 secs

     total energy              =   -1317.06320137 Ry
     estimated scf accuracy    <       0.00000069 Ry

     total magnetization       =     0.00 Bohr mag/cell
     absolute magnetization    =     0.01 Bohr mag/cell

     iteration # 12     ecut=    90.00 Ry     beta= 0.20
     Davidson diagonalization with overlap
     ethr =  1.08E-09,  avg # of iterations =  4.3

     total cpu time spent up to now is     3449.0 secs

     total energy              =   -1317.06319954 Ry
     estimated scf accuracy    <       0.00000007 Ry

     total magnetization       =     0.00 Bohr mag/cell
     absolute magnetization    =     0.01 Bohr mag/cell

     iteration # 13     ecut=    90.00 Ry     beta= 0.20
     Davidson diagonalization with overlap
     ethr =  1.10E-10,  avg # of iterations =  4.2

     total cpu time spent up to now is     3460.5 secs

     total energy              =   -1317.06320084 Ry
     estimated scf accuracy    <       0.00000012 Ry

     total magnetization       =     0.00 Bohr mag/cell
     absolute magnetization    =     0.01 Bohr mag/cell

     iteration # 14     ecut=    90.00 Ry     beta= 0.20
     Davidson diagonalization with overlap
     ethr =  1.10E-10,  avg # of iterations =  3.3

     total cpu time spent up to now is     3470.4 secs

     total energy              =   -1317.06319907 Ry
     estimated scf accuracy    <       0.00000003 Ry

     total magnetization       =     0.00 Bohr mag/cell
     absolute magnetization    =     0.01 Bohr mag/cell

     iteration # 15     ecut=    90.00 Ry     beta= 0.20
     Davidson diagonalization with overlap
     ethr =  4.83E-11,  avg # of iterations =  2.4

     total cpu time spent up to now is     3479.8 secs

     total energy              =   -1317.06319978 Ry
     estimated scf accuracy    <       0.00000002 Ry

     total magnetization       =     0.00 Bohr mag/cell
     absolute magnetization    =     0.01 Bohr mag/cell

     iteration # 16     ecut=    90.00 Ry     beta= 0.20
     Davidson diagonalization with overlap
     ethr =  2.55E-11,  avg # of iterations =  2.1

     total cpu time spent up to now is     3488.7 secs

     total energy              =   -1317.06319980 Ry
     estimated scf accuracy    <          9.6E-09 Ry

     total magnetization       =     0.00 Bohr mag/cell
     absolute magnetization    =     0.01 Bohr mag/cell

     iteration # 17     ecut=    90.00 Ry     beta= 0.20
     Davidson diagonalization with overlap
     ethr =  1.50E-11,  avg # of iterations =  1.1

     total cpu time spent up to now is     3496.2 secs

     total energy              =   -1317.06319933 Ry
     estimated scf accuracy    <       0.00000001 Ry

     total magnetization       =     0.00 Bohr mag/cell
     absolute magnetization    =     0.01 Bohr mag/cell

     iteration # 18     ecut=    90.00 Ry     beta= 0.20
     Davidson diagonalization with overlap
     ethr =  1.50E-11,  avg # of iterations =  2.9

     total cpu time spent up to now is     3505.4 secs

     total energy              =   -1317.06319769 Ry
     estimated scf accuracy    <          8.2E-09 Ry

     total magnetization       =     0.00 Bohr mag/cell
     absolute magnetization    =     0.00 Bohr mag/cell

     iteration # 19     ecut=    90.00 Ry     beta= 0.20
     Davidson diagonalization with overlap
     ethr =  1.28E-11,  avg # of iterations =  2.9

     total cpu time spent up to now is     3514.7 secs

     total energy              =   -1317.06320032 Ry
     estimated scf accuracy    <          9.9E-09 Ry

     total magnetization       =     0.00 Bohr mag/cell
     absolute magnetization    =     0.00 Bohr mag/cell

     iteration # 20     ecut=    90.00 Ry     beta= 0.20
     Davidson diagonalization with overlap
     ethr =  1.28E-11,  avg # of iterations =  3.5

     total cpu time spent up to now is     3525.0 secs

     total energy              =   -1317.06320172 Ry
     estimated scf accuracy    <          6.7E-09 Ry

     total magnetization       =     0.00 Bohr mag/cell
     absolute magnetization    =     0.00 Bohr mag/cell

     iteration # 21     ecut=    90.00 Ry     beta= 0.20
     Davidson diagonalization with overlap
     ethr =  1.04E-11,  avg # of iterations =  4.0

     total cpu time spent up to now is     3535.4 secs

     total energy              =   -1317.06320076 Ry
     estimated scf accuracy    <          1.9E-09 Ry

     total magnetization       =     0.00 Bohr mag/cell
     absolute magnetization    =     0.00 Bohr mag/cell

     iteration # 22     ecut=    90.00 Ry     beta= 0.20
     Davidson diagonalization with overlap
     ethr =  3.04E-12,  avg # of iterations =  4.4

     total cpu time spent up to now is     3547.8 secs

     total energy              =   -1317.06319850 Ry
     estimated scf accuracy    <          1.2E-09 Ry

     total magnetization       =     0.00 Bohr mag/cell
     absolute magnetization    =     0.00 Bohr mag/cell

     iteration # 23     ecut=    90.00 Ry     beta= 0.20
     Davidson diagonalization with overlap
     ethr =  1.88E-12,  avg # of iterations =  3.8

     total cpu time spent up to now is     3558.5 secs

     total energy              =   -1317.06319833 Ry
     estimated scf accuracy    <          7.8E-10 Ry

     total magnetization       =     0.00 Bohr mag/cell
     absolute magnetization    =     0.00 Bohr mag/cell

     iteration # 24     ecut=    90.00 Ry     beta= 0.20
     Davidson diagonalization with overlap
     ethr =  1.21E-12,  avg # of iterations =  4.2

     total cpu time spent up to now is     3569.1 secs

     total energy              =   -1317.06319822 Ry
     estimated scf accuracy    <          5.2E-10 Ry

     total magnetization       =     0.00 Bohr mag/cell
     absolute magnetization    =     0.00 Bohr mag/cell

     iteration # 25     ecut=    90.00 Ry     beta= 0.20
     Davidson diagonalization with overlap
     ethr =  8.18E-13,  avg # of iterations =  1.8

     total cpu time spent up to now is     3577.4 secs

     total energy              =   -1317.06319788 Ry
     estimated scf accuracy    <          5.2E-10 Ry

     total magnetization       =     0.00 Bohr mag/cell
     absolute magnetization    =     0.00 Bohr mag/cell

     iteration # 26     ecut=    90.00 Ry     beta= 0.20
     Davidson diagonalization with overlap
     ethr =  8.11E-13,  avg # of iterations =  3.4

     total cpu time spent up to now is     3587.2 secs

     total energy              =   -1317.06319832 Ry
     estimated scf accuracy    <          2.7E-10 Ry

     total magnetization       =     0.00 Bohr mag/cell
     absolute magnetization    =     0.00 Bohr mag/cell

     iteration # 27     ecut=    90.00 Ry     beta= 0.20
     Davidson diagonalization with overlap
     ethr =  4.19E-13,  avg # of iterations =  3.0

     total cpu time spent up to now is     3596.8 secs

     total energy              =   -1317.06319840 Ry
     estimated scf accuracy    <          3.9E-10 Ry

     total magnetization       =     0.00 Bohr mag/cell
     absolute magnetization    =     0.00 Bohr mag/cell

     iteration # 28     ecut=    90.00 Ry     beta= 0.20
     Davidson diagonalization with overlap
     ethr =  4.19E-13,  avg # of iterations =  2.0

     total cpu time spent up to now is     3605.1 secs

     total energy              =   -1317.06319842 Ry
     estimated scf accuracy    <          1.5E-09 Ry

     total magnetization       =     0.00 Bohr mag/cell
     absolute magnetization    =     0.00 Bohr mag/cell

     iteration # 29     ecut=    90.00 Ry     beta= 0.20
     Davidson diagonalization with overlap
     ethr =  4.19E-13,  avg # of iterations =  1.8

     total cpu time spent up to now is     3613.4 secs

     total energy              =   -1317.06319894 Ry
     estimated scf accuracy    <          7.6E-10 Ry

     total magnetization       =     0.00 Bohr mag/cell
     absolute magnetization    =     0.00 Bohr mag/cell

     iteration # 30     ecut=    90.00 Ry     beta= 0.20
     Davidson diagonalization with overlap
     ethr =  4.19E-13,  avg # of iterations =  3.5

     Magnetic moment per site:
     atom:    1    charge:   14.3239    magn:   -0.0001    constr:    0.0000
     atom:    2    charge:   14.3239    magn:    0.0002    constr:    0.0000
     atom:    3    charge:   14.3239    magn:   -0.0007    constr:    0.0000
     atom:    4    charge:   14.3239    magn:    0.0007    constr:    0.0000

     total cpu time spent up to now is     3623.4 secs

     End of self-consistent calculation

     Number of k-points >= 100: set verbosity='high' to print the bands.

     the Fermi energy is    20.6992 ev

!    total energy              =   -1317.06319895 Ry

     total all-electron energy =    -10182.249341 Ry
     estimated scf accuracy    <          7.1E-11 Ry
     smearing contrib. (-TS)   =      -0.00381153 Ry
     internal energy E=F+TS    =   -1317.05938743 Ry

     The total energy is F=E-TS. E is the sum of the following terms:
     one-electron contribution =    -399.07445571 Ry
     hartree contribution      =     246.50795716 Ry
     xc contribution           =    -139.01257984 Ry
     ewald contribution        =    -720.84455502 Ry
     one-center paw contrib.   =    -304.63575402 Ry

     total magnetization       =     0.00 Bohr mag/cell
     absolute magnetization    =     0.00 Bohr mag/cell

     convergence has been achieved in  30 iterations

     Forces acting on atoms (cartesian axes, Ry/au):

     atom    1 type  1   force =    -0.00001421    0.00000083    0.00000258
     atom    2 type  1   force =     0.00001357   -0.00000065   -0.00000146
     atom    3 type  1   force =    -0.00001583    0.00000085   -0.00000187
     atom    4 type  1   force =     0.00001646   -0.00000103    0.00000075

     Total force =     0.000030     Total SCF correction =     0.000010
     SCF correction compared to forces is large: reduce conv_thr to get better values


     Computing stress (Cartesian axis) and pressure

          total   stress  (Ry/bohr**3)                   (kbar)     P=       -1.49
  -0.00000364   0.00000038   0.00000007           -0.53        0.06        0.01
   0.00000038  -0.00001275   0.00000005            0.06       -1.88        0.01
   0.00000007   0.00000005  -0.00001401            0.01        0.01       -2.06


     init_run     :     11.19s CPU     11.80s WALL (       2 calls)
     electrons    :   3296.45s CPU   3508.62s WALL (      10 calls)
     update_pot   :     18.53s CPU     18.67s WALL (       8 calls)
     forces       :     24.01s CPU     24.87s WALL (      10 calls)
     stress       :     59.19s CPU     60.89s WALL (      10 calls)

     Called by init_run:
     wfcinit      :      6.71s CPU      7.13s WALL (       2 calls)
     potinit      :      1.79s CPU      1.85s WALL (       2 calls)
     hinit0       :      2.28s CPU      2.31s WALL (       2 calls)

     Called by electrons:
     c_bands      :   2627.31s CPU   2751.44s WALL (     327 calls)
     sum_band     :    468.26s CPU    529.85s WALL (     327 calls)
     v_of_rho     :     48.43s CPU     54.86s WALL (     334 calls)
     newd         :     55.56s CPU     73.89s WALL (     334 calls)
     PAW_pot      :     94.75s CPU     96.31s WALL (     342 calls)
     mix_rho      :      5.54s CPU      6.06s WALL (     327 calls)

     Called by c_bands:
     init_us_2    :     24.85s CPU     25.30s WALL (   86184 calls)
     cegterg      :   2525.70s CPU   2648.43s WALL (   41202 calls)

     Called by *egterg:
     cdiaghg      :    192.19s CPU    193.49s WALL (  159964 calls)
     h_psi        :   1291.76s CPU   1403.86s WALL (  161602 calls)
     s_psi        :    209.36s CPU    211.00s WALL (  161602 calls)
     g_psi        :      9.45s CPU      9.50s WALL (  120148 calls)

     Called by h_psi:
     h_psi:calbec :    192.22s CPU    201.77s WALL (  161602 calls)
     vloc_psi     :    867.23s CPU    967.51s WALL (  161602 calls)
     add_vuspsi   :    221.18s CPU    223.36s WALL (  161602 calls)

     General routines
     calbec       :    275.22s CPU    287.84s WALL (  210112 calls)
     fft          :     14.06s CPU     17.95s WALL (    8744 calls)
     ffts         :      0.32s CPU      0.34s WALL (    1322 calls)
     fftw         :    946.02s CPU   1054.49s WALL ( 9870368 calls)
     interpolate  :      1.53s CPU      1.81s WALL (     668 calls)

     Parallel routines
     fft_scatt_xy :    125.43s CPU    139.50s WALL ( 9880434 calls)
     fft_scatt_yz :    299.26s CPU    337.98s WALL ( 9880434 calls)

     PWSCF        :  56m55.53s CPU      1h 0m WALL


   This run was terminated on:  22:52:39  16May2022            

=------------------------------------------------------------------------------=
   JOB DONE.
=------------------------------------------------------------------------------=
Note: The following floating-point exceptions are signalling: IEEE_INVALID_FLAG IEEE_UNDERFLOW_FLAG IEEE_DENORMAL
Note: The following floating-point exceptions are signalling: IEEE_UNDERFLOW_FLAG IEEE_DENORMAL
Note: The following floating-point exceptions are signalling: IEEE_UNDERFLOW_FLAG IEEE_DENORMAL
Note: The following floating-point exceptions are signalling: IEEE_INVALID_FLAG IEEE_UNDERFLOW_FLAG IEEE_DENORMAL
