 # Fe4 Mn4
 
           8  atoms
           2  atom types
 
      0.000000000000       4.687324000000  xlo xhi
      0.000000000000       4.687324000000  ylo yhi
      0.000000000000       4.687324000000  zlo zhi
 
Masses
 
            1   55.84500000             # Fe
            2   54.93804500             # Mn
 
Atoms # atomic
 
         1    1        0.000000000000       0.000000000000       0.000000000000
         2    2        2.343662000000       2.343662000000       2.343662000000
         3    1        0.000000000000       2.343662000000       2.343662000000
         4    2        2.343662000000       0.000000000000       0.000000000000
         5    1        2.343662000000       2.343662000000       0.000000000000
         6    2        0.000000000000       0.000000000000       2.343662000000
         7    1        2.343662000000       0.000000000000       2.343662000000
         8    2        0.000000000000       2.343662000000       0.000000000000
