LAMMPS data file via write_data, version 10 Mar 2021, timestep = 0
2 atoms
1 atom types
2 atoms
1 atom types
0.0 2.45127682400001 xlo xhi
0.0 2.12286830288009 ylo yhi
0.0 3.921462437 zlo zhi
-1.2256382145 -2.12375371991848e-07 2.9802208537055e-08 xy xz yz

Masses

1 55.84500
Atoms

1 1	-0.0000010163        1.4152463838        0.9803654686
2 1	1.2256393595        0.7076216946        2.9410969793
