
     Program PWSCF v.6.7MaX starts on  8Dec2021 at 19:21: 1 

     This program is part of the open-source Quantum ESPRESSO suite
     for quantum simulation of materials; please cite
         "P. Giannozzi et al., J. Phys.:Condens. Matter 21 395502 (2009);
         "P. Giannozzi et al., J. Phys.:Condens. Matter 29 465901 (2017);
          URL http://www.quantum-espresso.org", 
     in publications or presentations arising from this work. More details at
     http://www.quantum-espresso.org/quote

     Parallel version (MPI), running on    12 processors

     MPI processes distributed on     1 nodes
     R & G space division:  proc/nbgrp/npool/nimage =      12
     Reading input from Opt-B1-FeMn.in

     Current dimensions of program PWSCF are:
     Max number of different atomic species (ntypx) = 10
     Max number of k-points (npk) =  40000
     Max angular momentum in pseudopotentials (lmaxx) =  3
     file Fe.pbe-spn-kjpaw_psl.0.2.1.UPF: wavefunction(s)  3D renormalized

     Subspace diagonalization in iterative solution of the eigenvalue problem:
     a serial algorithm will be used


     Parallelization info
     --------------------
     sticks:   dense  smooth     PW     G-vecs:    dense   smooth      PW
     Min         148      48     16                 4124      782     150
     Max         150      49     17                 4125      786     152
     Sum        1789     583    199                49493     9409    1807



     bravais-lattice index     =            2
     lattice parameter (alat)  =       6.9048  a.u.
     unit-cell volume          =      82.3005 (a.u.)^3
     number of atoms/cell      =            2
     number of atomic types    =            2
     number of electrons       =        31.00
     number of Kohn-Sham states=           20
     kinetic-energy cutoff     =      90.0000  Ry
     charge density cutoff     =    1080.0000  Ry
     scf convergence threshold =      1.0E-08
     mixing beta               =       0.2000
     number of iterations used =            8  plain     mixing
     energy convergence thresh.=      1.0E-05
     force convergence thresh. =      1.0E-04
     press convergence thresh. =      1.0E-01
     Exchange-correlation= SLA  PW   PBX  PBC
                           (   1   4   3   4   0   0   0)
     nstep                     =          100


     celldm(1)=   6.904847  celldm(2)=   0.000000  celldm(3)=   0.000000
     celldm(4)=   0.000000  celldm(5)=   0.000000  celldm(6)=   0.000000

     crystal axes: (cart. coord. in units of alat)
               a(1) = (  -0.500000   0.000000   0.500000 )  
               a(2) = (   0.000000   0.500000   0.500000 )  
               a(3) = (  -0.500000   0.500000   0.000000 )  

     reciprocal axes: (cart. coord. in units 2 pi/alat)
               b(1) = ( -1.000000 -1.000000  1.000000 )  
               b(2) = (  1.000000  1.000000  1.000000 )  
               b(3) = ( -1.000000  1.000000 -1.000000 )  


     PseudoPot. # 1 for Mn read from file:
     /opt/QEpot/SSSP_efficiency_pseudos/mn_pbe_v1.5.uspp.F.UPF
     MD5 check sum: 82ef2b46521d7a7d9e736dc3972e4928
     Pseudo is Ultrasoft + core correction, Zval = 15.0
     Generated by new atomic code, or converted to UPF format
     Using radial grid of  859 points,  6 beta functions with: 
                l(1) =   0
                l(2) =   0
                l(3) =   1
                l(4) =   1
                l(5) =   2
                l(6) =   2
     Q(r) pseudized with  8 coefficients,  rinner =    0.950   0.950   0.950
                                                       0.950   0.950

     PseudoPot. # 2 for Fe read from file:
     /opt/QEpot/SSSP_efficiency_pseudos/Fe.pbe-spn-kjpaw_psl.0.2.1.UPF
     MD5 check sum: e86618425769142926afa95317d90200
     Pseudo is Projector augmented-wave + core cor, Zval = 16.0
     Generated using "atomic" code by A. Dal Corso  v.5.0.99 svn rev. 10869
     Shape of augmentation charge: PSQ
     Using radial grid of 1191 points,  6 beta functions with: 
                l(1) =   0
                l(2) =   0
                l(3) =   1
                l(4) =   1
                l(5) =   2
                l(6) =   2
     Q(r) pseudized with 0 coefficients 


     atomic species   valence    mass     pseudopotential
        Mn            15.00    54.93800     Mn( 1.00)
        Fe            16.00    55.84500     Fe( 1.00)

     Starting magnetic structure 
     atomic species   magnetization
        Mn           0.200
        Fe           0.200

     No symmetry found



   Cartesian axes

     site n.     atom                  positions (alat units)
         1           Mn  tau(   1) = (   0.5000000   0.5000000   0.5000000  )
         2           Fe  tau(   2) = (   0.0000000   0.0000000   0.0000000  )

     number of k points=   504  Gaussian smearing, width (Ry)=  0.0100

     Number of k-points >= 100: set verbosity='high' to print them.

     Dense  grid:    49493 G-vectors     FFT dimensions: (  54,  54,  54)

     Smooth grid:     9409 G-vectors     FFT dimensions: (  30,  30,  30)

     Estimated max dynamical RAM per process >      58.15 MB

     Estimated total dynamical RAM >     697.80 MB

     Check: negative core charge=   -0.000020
     Generating pointlists ...
     new r_m :   0.2063 (alat units)  1.4241 (a.u.) for type    1
     new r_m :   0.2063 (alat units)  1.4241 (a.u.) for type    2

     Initial potential from superposition of free atoms

     starting charge   30.49948, renormalised to   31.00000
     Starting wfcs are   26 randomized atomic wfcs
     Checking if some PAW data can be deallocated... 

     total cpu time spent up to now is        4.6 secs

     Self-consistent Calculation

     iteration #  1     ecut=    90.00 Ry     beta= 0.20
     Davidson diagonalization with overlap
     ethr =  1.00E-02,  avg # of iterations =  2.6

     total cpu time spent up to now is       13.7 secs

     total energy              =    -539.31339790 Ry
     estimated scf accuracy    <       0.39653519 Ry

     total magnetization       =     2.06 Bohr mag/cell
     absolute magnetization    =     2.06 Bohr mag/cell

     iteration #  2     ecut=    90.00 Ry     beta= 0.20
     Davidson diagonalization with overlap
     ethr =  1.28E-03,  avg # of iterations =  1.3

     total cpu time spent up to now is       20.7 secs

     total energy              =    -539.36644660 Ry
     estimated scf accuracy    <       0.23091954 Ry

     total magnetization       =     1.87 Bohr mag/cell
     absolute magnetization    =     1.88 Bohr mag/cell

     iteration #  3     ecut=    90.00 Ry     beta= 0.20
     Davidson diagonalization with overlap
     ethr =  7.45E-04,  avg # of iterations =  1.3

     total cpu time spent up to now is       27.8 secs

     total energy              =    -539.42591431 Ry
     estimated scf accuracy    <       0.14307486 Ry

     total magnetization       =     1.66 Bohr mag/cell
     absolute magnetization    =     1.68 Bohr mag/cell

     iteration #  4     ecut=    90.00 Ry     beta= 0.20
     Davidson diagonalization with overlap
     ethr =  4.62E-04,  avg # of iterations =  1.6

     total cpu time spent up to now is       35.1 secs

     total energy              =    -539.45734388 Ry
     estimated scf accuracy    <       0.05390159 Ry

     total magnetization       =     1.15 Bohr mag/cell
     absolute magnetization    =     1.18 Bohr mag/cell

     iteration #  5     ecut=    90.00 Ry     beta= 0.20
     Davidson diagonalization with overlap
     ethr =  1.74E-04,  avg # of iterations =  2.0

     total cpu time spent up to now is       43.2 secs

     total energy              =    -539.47351993 Ry
     estimated scf accuracy    <       0.03243018 Ry

     total magnetization       =     0.36 Bohr mag/cell
     absolute magnetization    =     0.41 Bohr mag/cell

     iteration #  6     ecut=    90.00 Ry     beta= 0.20
     Davidson diagonalization with overlap
     ethr =  1.05E-04,  avg # of iterations =  2.0

     total cpu time spent up to now is       51.9 secs

     total energy              =    -539.48342366 Ry
     estimated scf accuracy    <       0.01791094 Ry

     total magnetization       =     0.33 Bohr mag/cell
     absolute magnetization    =     0.37 Bohr mag/cell

     iteration #  7     ecut=    90.00 Ry     beta= 0.20
     Davidson diagonalization with overlap
     ethr =  5.78E-05,  avg # of iterations =  1.0

     total cpu time spent up to now is       58.6 secs

     total energy              =    -539.48395367 Ry
     estimated scf accuracy    <       0.00294996 Ry

     total magnetization       =     0.19 Bohr mag/cell
     absolute magnetization    =     0.22 Bohr mag/cell

     iteration #  8     ecut=    90.00 Ry     beta= 0.20
     Davidson diagonalization with overlap
     ethr =  9.52E-06,  avg # of iterations =  2.1

     total cpu time spent up to now is       67.0 secs

     total energy              =    -539.48515266 Ry
     estimated scf accuracy    <       0.00052194 Ry

     total magnetization       =     0.05 Bohr mag/cell
     absolute magnetization    =     0.08 Bohr mag/cell

     iteration #  9     ecut=    90.00 Ry     beta= 0.20
     Davidson diagonalization with overlap
     ethr =  1.68E-06,  avg # of iterations =  2.4

     total cpu time spent up to now is       75.2 secs

     total energy              =    -539.48502377 Ry
     estimated scf accuracy    <       0.00036106 Ry

     total magnetization       =    -0.03 Bohr mag/cell
     absolute magnetization    =     0.03 Bohr mag/cell

     iteration # 10     ecut=    90.00 Ry     beta= 0.20
     Davidson diagonalization with overlap
     ethr =  1.16E-06,  avg # of iterations =  2.0

     total cpu time spent up to now is       83.3 secs

     total energy              =    -539.48516299 Ry
     estimated scf accuracy    <       0.00012787 Ry

     total magnetization       =    -0.09 Bohr mag/cell
     absolute magnetization    =     0.10 Bohr mag/cell

     iteration # 11     ecut=    90.00 Ry     beta= 0.20
     Davidson diagonalization with overlap
     ethr =  4.12E-07,  avg # of iterations =  2.0

     total cpu time spent up to now is       91.8 secs

     total energy              =    -539.48545219 Ry
     estimated scf accuracy    <       0.00002359 Ry

     total magnetization       =     0.01 Bohr mag/cell
     absolute magnetization    =     0.01 Bohr mag/cell

     iteration # 12     ecut=    90.00 Ry     beta= 0.20
     Davidson diagonalization with overlap
     ethr =  7.61E-08,  avg # of iterations =  1.9

     total cpu time spent up to now is       99.3 secs

     total energy              =    -539.48545612 Ry
     estimated scf accuracy    <       0.00000218 Ry

     total magnetization       =     0.00 Bohr mag/cell
     absolute magnetization    =     0.00 Bohr mag/cell

     iteration # 13     ecut=    90.00 Ry     beta= 0.20
     Davidson diagonalization with overlap
     ethr =  7.05E-09,  avg # of iterations =  3.8

     total cpu time spent up to now is      109.9 secs

     total energy              =    -539.48545733 Ry
     estimated scf accuracy    <       0.00000061 Ry

     total magnetization       =     0.01 Bohr mag/cell
     absolute magnetization    =     0.01 Bohr mag/cell

     iteration # 14     ecut=    90.00 Ry     beta= 0.20
     Davidson diagonalization with overlap
     ethr =  1.98E-09,  avg # of iterations =  2.1

     total cpu time spent up to now is      118.2 secs

     total energy              =    -539.48545515 Ry
     estimated scf accuracy    <       0.00000111 Ry

     total magnetization       =     0.01 Bohr mag/cell
     absolute magnetization    =     0.01 Bohr mag/cell

     iteration # 15     ecut=    90.00 Ry     beta= 0.20
     Davidson diagonalization with overlap
     ethr =  1.98E-09,  avg # of iterations =  2.7

     total cpu time spent up to now is      127.9 secs

     total energy              =    -539.48545782 Ry
     estimated scf accuracy    <       0.00000041 Ry

     total magnetization       =    -0.00 Bohr mag/cell
     absolute magnetization    =     0.00 Bohr mag/cell

     iteration # 16     ecut=    90.00 Ry     beta= 0.20
     Davidson diagonalization with overlap
     ethr =  1.31E-09,  avg # of iterations =  1.5

     Magnetic moment per site:
     atom:    1    charge:   12.2570    magn:    0.0000    constr:    0.0000
     atom:    2    charge:   13.3817    magn:   -0.0000    constr:    0.0000

     total cpu time spent up to now is      135.6 secs

     End of self-consistent calculation

     Number of k-points >= 100: set verbosity='high' to print the bands.

     the Fermi energy is    38.3019 ev

!    total energy              =    -539.48545821 Ry
     estimated scf accuracy    <          9.4E-10 Ry
     smearing contrib. (-TS)   =      -0.00122105 Ry
     internal energy E=F+TS    =    -539.48423716 Ry

     The total energy is F=E-TS. E is the sum of the following terms:
     one-electron contribution =     -91.12235174 Ry
     hartree contribution      =      86.16488457 Ry
     xc contribution           =     -63.22626709 Ry
     ewald contribution        =    -395.14131086 Ry
     one-center paw contrib.   =     -76.15919204 Ry

     total magnetization       =     0.00 Bohr mag/cell
     absolute magnetization    =     0.00 Bohr mag/cell

     convergence has been achieved in  16 iterations

     Forces acting on atoms (cartesian axes, Ry/au):

     atom    1 type  1   force =    -0.00000009   -0.00000014    0.00000095
     atom    2 type  2   force =     0.00000009    0.00000014   -0.00000095

     Total force =     0.000001     Total SCF correction =     0.000011
     SCF correction compared to forces is large: reduce conv_thr to get better values


     Computing stress (Cartesian axis) and pressure

          total   stress  (Ry/bohr**3)                   (kbar)     P=     5785.44
   0.03932851  -0.00000004   0.00000001         5785.42       -0.01        0.00
  -0.00000004   0.03932872   0.00000008           -0.01     5785.45        0.01
   0.00000001   0.00000008   0.03932867            0.00        0.01     5785.45


     BFGS Geometry Optimization
     Energy error            =      0.0E+00
     Gradient error          =      9.5E-07
     Cell gradient error     =      3.9E-02


     number of scf cycles    =   1
     number of bfgs steps    =   0

     enthalpy new            =    -539.4854582094 Ry

     new trust radius        =       0.5000000000 bohr
     new conv_thr            =       0.0000000100 Ry

     new unit-cell volume =    170.81227 a.u.^3 (    25.31177 Ang^3 )
     density =      7.26775 g/cm^3

CELL_PARAMETERS (alat=  6.90484737)
  -0.637786463   0.000000416   0.637787022
  -0.000000097   0.637787496   0.637787341
  -0.637786616   0.637787329   0.000000263

ATOMIC_POSITIONS (alat)
Mn            0.6377863890        0.6377873632        0.6377874183
Fe            0.0000000044        0.0000000073       -0.0000000491



     Writing output data file ./pwscf.save/
     NEW-OLD atomic charge density approx. for the potential

     Check: negative core charge=   -0.000050
     extrapolated charge   46.80427, renormalised to   31.00000
     Generating pointlists ...

     total cpu time spent up to now is      140.0 secs

     Self-consistent Calculation

     iteration #  1     ecut=    90.00 Ry     beta= 0.20
     Davidson diagonalization with overlap
     c_bands:  3 eigenvalues not converged
     c_bands:  1 eigenvalues not converged
     c_bands:  1 eigenvalues not converged
     c_bands:  4 eigenvalues not converged
     c_bands:  1 eigenvalues not converged
     c_bands:  1 eigenvalues not converged
     c_bands:  1 eigenvalues not converged
     c_bands:  1 eigenvalues not converged
     c_bands:  1 eigenvalues not converged
     c_bands:  1 eigenvalues not converged
     c_bands:  2 eigenvalues not converged
     c_bands:  1 eigenvalues not converged
     c_bands:  4 eigenvalues not converged
     c_bands:  3 eigenvalues not converged
     c_bands:  1 eigenvalues not converged
     c_bands:  1 eigenvalues not converged
     c_bands:  1 eigenvalues not converged
     c_bands:  1 eigenvalues not converged
     c_bands:  1 eigenvalues not converged
     c_bands:  1 eigenvalues not converged
     c_bands:  1 eigenvalues not converged
     c_bands:  1 eigenvalues not converged
     c_bands:  1 eigenvalues not converged
     c_bands:  3 eigenvalues not converged
     c_bands:  1 eigenvalues not converged
     c_bands:  1 eigenvalues not converged
     c_bands:  1 eigenvalues not converged
     c_bands:  1 eigenvalues not converged
     c_bands:  1 eigenvalues not converged
     c_bands:  2 eigenvalues not converged
     c_bands:  1 eigenvalues not converged
     c_bands:  1 eigenvalues not converged
     c_bands:  1 eigenvalues not converged
     c_bands:  1 eigenvalues not converged
     c_bands:  1 eigenvalues not converged
     c_bands:  1 eigenvalues not converged
     c_bands:  1 eigenvalues not converged
     c_bands:  1 eigenvalues not converged
     c_bands:  1 eigenvalues not converged
     c_bands:  1 eigenvalues not converged
     c_bands:  1 eigenvalues not converged
     c_bands:  1 eigenvalues not converged
     c_bands:  1 eigenvalues not converged
     c_bands:  1 eigenvalues not converged
     c_bands:  1 eigenvalues not converged
     c_bands:  5 eigenvalues not converged
     c_bands:  1 eigenvalues not converged
     c_bands:  1 eigenvalues not converged
     c_bands:  1 eigenvalues not converged
     c_bands:  1 eigenvalues not converged
     c_bands:  1 eigenvalues not converged
     c_bands:  1 eigenvalues not converged
     c_bands:  1 eigenvalues not converged
     c_bands:  1 eigenvalues not converged
     c_bands:  1 eigenvalues not converged
     c_bands:  1 eigenvalues not converged
     c_bands:  1 eigenvalues not converged
     c_bands:  1 eigenvalues not converged
     c_bands:  1 eigenvalues not converged
     c_bands:  1 eigenvalues not converged
     c_bands:  1 eigenvalues not converged
     c_bands:  1 eigenvalues not converged
     c_bands:  1 eigenvalues not converged
     c_bands:  1 eigenvalues not converged
     c_bands:  1 eigenvalues not converged
     c_bands:  2 eigenvalues not converged
     c_bands:  1 eigenvalues not converged
     c_bands:  1 eigenvalues not converged
     c_bands:  1 eigenvalues not converged
     c_bands:  1 eigenvalues not converged
     c_bands:  1 eigenvalues not converged
     c_bands:  1 eigenvalues not converged
     c_bands:  1 eigenvalues not converged
     c_bands:  1 eigenvalues not converged
     c_bands:  1 eigenvalues not converged
     c_bands:  1 eigenvalues not converged
     c_bands:  1 eigenvalues not converged
     c_bands:  1 eigenvalues not converged
     c_bands:  1 eigenvalues not converged
     c_bands:  1 eigenvalues not converged
     c_bands:  1 eigenvalues not converged
     c_bands:  1 eigenvalues not converged
     c_bands:  1 eigenvalues not converged
     c_bands:  1 eigenvalues not converged
     c_bands:  1 eigenvalues not converged
     c_bands:  1 eigenvalues not converged
     c_bands:  1 eigenvalues not converged
     c_bands:  1 eigenvalues not converged
     c_bands:  1 eigenvalues not converged
     c_bands:  1 eigenvalues not converged
     c_bands:  1 eigenvalues not converged
     c_bands:  1 eigenvalues not converged
     c_bands:  2 eigenvalues not converged
     c_bands:  1 eigenvalues not converged
     c_bands:  1 eigenvalues not converged
     c_bands:  2 eigenvalues not converged
     c_bands:  1 eigenvalues not converged
     c_bands:  1 eigenvalues not converged
     c_bands:  1 eigenvalues not converged
     c_bands:  1 eigenvalues not converged
     c_bands:  2 eigenvalues not converged
     c_bands:  2 eigenvalues not converged
     c_bands:  1 eigenvalues not converged
     c_bands:  2 eigenvalues not converged
     c_bands:  1 eigenvalues not converged
     c_bands:  2 eigenvalues not converged
     c_bands:  1 eigenvalues not converged
     c_bands:  1 eigenvalues not converged
     c_bands:  1 eigenvalues not converged
     c_bands:  1 eigenvalues not converged
     c_bands:  1 eigenvalues not converged
     c_bands:  1 eigenvalues not converged
     c_bands:  1 eigenvalues not converged
     c_bands:  1 eigenvalues not converged
     c_bands:  2 eigenvalues not converged
     c_bands:  1 eigenvalues not converged
     c_bands:  2 eigenvalues not converged
     c_bands:  2 eigenvalues not converged
     c_bands:  1 eigenvalues not converged
     c_bands:  1 eigenvalues not converged
     c_bands:  1 eigenvalues not converged
     c_bands:  1 eigenvalues not converged
     c_bands:  1 eigenvalues not converged
     c_bands:  1 eigenvalues not converged
     c_bands:  1 eigenvalues not converged
     c_bands:  2 eigenvalues not converged
     c_bands:  1 eigenvalues not converged
     c_bands:  1 eigenvalues not converged
     c_bands:  1 eigenvalues not converged
     c_bands:  1 eigenvalues not converged
     c_bands:  1 eigenvalues not converged
     c_bands:  2 eigenvalues not converged
     c_bands:  1 eigenvalues not converged
     c_bands:  1 eigenvalues not converged
     c_bands:  1 eigenvalues not converged
     c_bands:  1 eigenvalues not converged
     c_bands:  2 eigenvalues not converged
     c_bands:  1 eigenvalues not converged
     c_bands:  1 eigenvalues not converged
     c_bands:  1 eigenvalues not converged
     c_bands:  1 eigenvalues not converged
     c_bands:  1 eigenvalues not converged
     c_bands:  1 eigenvalues not converged
     c_bands:  1 eigenvalues not converged
     c_bands:  1 eigenvalues not converged
     c_bands:  1 eigenvalues not converged
     c_bands:  1 eigenvalues not converged
     c_bands:  1 eigenvalues not converged
     c_bands:  1 eigenvalues not converged
     c_bands:  1 eigenvalues not converged
     c_bands:  1 eigenvalues not converged
     c_bands:  1 eigenvalues not converged
     c_bands:  1 eigenvalues not converged
     c_bands:  1 eigenvalues not converged
     c_bands:  1 eigenvalues not converged
     c_bands:  2 eigenvalues not converged
     c_bands:  1 eigenvalues not converged
     c_bands:  1 eigenvalues not converged
     c_bands:  1 eigenvalues not converged
     c_bands:  1 eigenvalues not converged
     c_bands:  1 eigenvalues not converged
     c_bands:  1 eigenvalues not converged
     c_bands:  1 eigenvalues not converged
     c_bands:  2 eigenvalues not converged
     c_bands:  2 eigenvalues not converged
     c_bands:  1 eigenvalues not converged
     c_bands:  1 eigenvalues not converged
     c_bands:  1 eigenvalues not converged
     c_bands:  1 eigenvalues not converged
     c_bands:  5 eigenvalues not converged
     c_bands:  5 eigenvalues not converged
     c_bands:  1 eigenvalues not converged
     c_bands:  1 eigenvalues not converged
     c_bands:  1 eigenvalues not converged
     c_bands:  1 eigenvalues not converged
     c_bands:  1 eigenvalues not converged
     c_bands:  1 eigenvalues not converged
     c_bands:  1 eigenvalues not converged
     c_bands:  1 eigenvalues not converged
     c_bands:  1 eigenvalues not converged
     c_bands:  1 eigenvalues not converged
     c_bands:  1 eigenvalues not converged
     c_bands:  1 eigenvalues not converged
     c_bands:  1 eigenvalues not converged
     c_bands:  1 eigenvalues not converged
     c_bands:  1 eigenvalues not converged
     c_bands:  1 eigenvalues not converged
     c_bands:  1 eigenvalues not converged
     c_bands:  1 eigenvalues not converged
     c_bands:  2 eigenvalues not converged
     c_bands:  2 eigenvalues not converged
     c_bands:  1 eigenvalues not converged
     c_bands:  1 eigenvalues not converged
     c_bands:  2 eigenvalues not converged
     c_bands:  1 eigenvalues not converged
     c_bands:  1 eigenvalues not converged
     c_bands:  1 eigenvalues not converged
     c_bands:  1 eigenvalues not converged
     c_bands:  1 eigenvalues not converged
     c_bands:  1 eigenvalues not converged
     c_bands:  1 eigenvalues not converged
     c_bands:  1 eigenvalues not converged
     c_bands:  1 eigenvalues not converged
     c_bands:  4 eigenvalues not converged
     c_bands:  1 eigenvalues not converged
     c_bands:  1 eigenvalues not converged
     c_bands:  1 eigenvalues not converged
     c_bands:  1 eigenvalues not converged
     c_bands:  1 eigenvalues not converged
     c_bands:  1 eigenvalues not converged
     c_bands:  1 eigenvalues not converged
     c_bands:  1 eigenvalues not converged
     c_bands:  1 eigenvalues not converged
     c_bands:  1 eigenvalues not converged
     c_bands:  1 eigenvalues not converged
     c_bands:  1 eigenvalues not converged
     c_bands:  1 eigenvalues not converged
     c_bands:  1 eigenvalues not converged
     c_bands:  1 eigenvalues not converged
     c_bands:  1 eigenvalues not converged
     c_bands:  1 eigenvalues not converged
     c_bands:  1 eigenvalues not converged
     c_bands:  1 eigenvalues not converged
     c_bands:  1 eigenvalues not converged
     c_bands:  1 eigenvalues not converged
     c_bands:  1 eigenvalues not converged
     c_bands:  1 eigenvalues not converged
     c_bands:  1 eigenvalues not converged
     c_bands:  1 eigenvalues not converged
     c_bands:  1 eigenvalues not converged
     c_bands:  1 eigenvalues not converged
     c_bands:  1 eigenvalues not converged
     c_bands:  1 eigenvalues not converged
     c_bands:  1 eigenvalues not converged
     c_bands:  1 eigenvalues not converged
     c_bands:  1 eigenvalues not converged
     c_bands:  1 eigenvalues not converged
     c_bands:  1 eigenvalues not converged
     c_bands:  1 eigenvalues not converged
     c_bands:  1 eigenvalues not converged
     c_bands:  1 eigenvalues not converged
     c_bands:  2 eigenvalues not converged
     c_bands:  2 eigenvalues not converged
     c_bands:  1 eigenvalues not converged
     c_bands:  1 eigenvalues not converged
     c_bands:  1 eigenvalues not converged
     c_bands:  1 eigenvalues not converged
     c_bands:  1 eigenvalues not converged
     c_bands:  1 eigenvalues not converged
     c_bands:  1 eigenvalues not converged
     c_bands:  1 eigenvalues not converged
     c_bands:  1 eigenvalues not converged
     c_bands:  1 eigenvalues not converged
     c_bands:  1 eigenvalues not converged
     c_bands:  1 eigenvalues not converged
     c_bands:  2 eigenvalues not converged
     c_bands:  2 eigenvalues not converged
     c_bands:  1 eigenvalues not converged
     c_bands:  1 eigenvalues not converged
     c_bands:  1 eigenvalues not converged
     c_bands:  1 eigenvalues not converged
     c_bands:  1 eigenvalues not converged
     c_bands:  1 eigenvalues not converged
     c_bands:  1 eigenvalues not converged
     c_bands:  1 eigenvalues not converged
     c_bands:  2 eigenvalues not converged
     c_bands:  2 eigenvalues not converged
     c_bands:  1 eigenvalues not converged
     c_bands:  2 eigenvalues not converged
     c_bands:  2 eigenvalues not converged
     c_bands:  2 eigenvalues not converged
     c_bands:  2 eigenvalues not converged
     c_bands:  2 eigenvalues not converged
     c_bands:  1 eigenvalues not converged
     c_bands:  1 eigenvalues not converged
     c_bands:  1 eigenvalues not converged
     c_bands:  1 eigenvalues not converged
     c_bands:  1 eigenvalues not converged
     c_bands:  2 eigenvalues not converged
     c_bands:  2 eigenvalues not converged
     c_bands:  1 eigenvalues not converged
     c_bands:  2 eigenvalues not converged
     c_bands:  1 eigenvalues not converged
     c_bands:  1 eigenvalues not converged
     c_bands:  2 eigenvalues not converged
     c_bands:  2 eigenvalues not converged
     c_bands:  1 eigenvalues not converged
     c_bands:  1 eigenvalues not converged
     c_bands:  1 eigenvalues not converged
     c_bands:  1 eigenvalues not converged
     c_bands:  1 eigenvalues not converged
     c_bands:  1 eigenvalues not converged
     c_bands:  1 eigenvalues not converged
     c_bands:  2 eigenvalues not converged
     c_bands:  1 eigenvalues not converged
     c_bands:  1 eigenvalues not converged
     c_bands:  1 eigenvalues not converged
     c_bands:  2 eigenvalues not converged
     c_bands:  1 eigenvalues not converged
     c_bands:  1 eigenvalues not converged
     c_bands:  2 eigenvalues not converged
     c_bands:  1 eigenvalues not converged
     c_bands:  2 eigenvalues not converged
     c_bands:  2 eigenvalues not converged
     c_bands:  1 eigenvalues not converged
     c_bands:  2 eigenvalues not converged
     c_bands:  1 eigenvalues not converged
     c_bands:  1 eigenvalues not converged
     c_bands:  1 eigenvalues not converged
     c_bands:  1 eigenvalues not converged
     c_bands:  1 eigenvalues not converged
     c_bands:  1 eigenvalues not converged
     c_bands:  1 eigenvalues not converged
     c_bands:  1 eigenvalues not converged
     c_bands:  1 eigenvalues not converged
     c_bands:  1 eigenvalues not converged
     c_bands:  1 eigenvalues not converged
     c_bands:  1 eigenvalues not converged
     c_bands:  1 eigenvalues not converged
     c_bands:  1 eigenvalues not converged
     c_bands:  1 eigenvalues not converged
     c_bands:  1 eigenvalues not converged
     c_bands:  1 eigenvalues not converged
     c_bands:  1 eigenvalues not converged
     ethr =  1.00E-06,  avg # of iterations = 36.0

     total cpu time spent up to now is      232.2 secs

     total energy              =    -494.32926441 Ry
     estimated scf accuracy    <      36.90454530 Ry

     total magnetization       =    -0.00 Bohr mag/cell
     absolute magnetization    =     0.00 Bohr mag/cell

     iteration #  2     ecut=    90.00 Ry     beta= 0.20
     Davidson diagonalization with overlap
     ethr =  1.00E-02,  avg # of iterations =  7.2

     total cpu time spent up to now is      250.1 secs

     total energy              =    -548.72848781 Ry
     estimated scf accuracy    <      46.36645005 Ry

     total magnetization       =     0.00 Bohr mag/cell
     absolute magnetization    =     0.00 Bohr mag/cell

     iteration #  3     ecut=    90.00 Ry     beta= 0.20
     Davidson diagonalization with overlap
     ethr =  1.00E-02,  avg # of iterations =  2.0

     total cpu time spent up to now is      258.1 secs

     total energy              =    -539.32120485 Ry
     estimated scf accuracy    <      30.22748660 Ry

     total magnetization       =     0.00 Bohr mag/cell
     absolute magnetization    =     0.00 Bohr mag/cell

     iteration #  4     ecut=    90.00 Ry     beta= 0.20
     Davidson diagonalization with overlap
     ethr =  1.00E-02,  avg # of iterations =  2.1

     total cpu time spent up to now is      267.7 secs

     total energy              =    -543.63416578 Ry
     estimated scf accuracy    <      23.60377046 Ry

     total magnetization       =     0.00 Bohr mag/cell
     absolute magnetization    =     0.00 Bohr mag/cell

     iteration #  5     ecut=    90.00 Ry     beta= 0.20
     Davidson diagonalization with overlap
     ethr =  1.00E-02,  avg # of iterations =  2.3

     total cpu time spent up to now is      275.5 secs

     total energy              =    -544.08777381 Ry
     estimated scf accuracy    <      30.76297356 Ry

     total magnetization       =     0.00 Bohr mag/cell
     absolute magnetization    =     0.00 Bohr mag/cell

     iteration #  6     ecut=    90.00 Ry     beta= 0.20
     Davidson diagonalization with overlap
     ethr =  1.00E-02,  avg # of iterations =  1.0

     total cpu time spent up to now is      282.2 secs

     total energy              =    -544.10923903 Ry
     estimated scf accuracy    <      31.06392492 Ry

     total magnetization       =     0.00 Bohr mag/cell
     absolute magnetization    =     0.00 Bohr mag/cell

     iteration #  7     ecut=    90.00 Ry     beta= 0.20
     Davidson diagonalization with overlap
     ethr =  1.00E-02,  avg # of iterations =  1.0

     total cpu time spent up to now is      289.1 secs

     total energy              =    -539.40599149 Ry
     estimated scf accuracy    <      31.46130168 Ry

     total magnetization       =     0.00 Bohr mag/cell
     absolute magnetization    =     0.00 Bohr mag/cell

     iteration #  8     ecut=    90.00 Ry     beta= 0.20
     Davidson diagonalization with overlap
     ethr =  1.00E-02,  avg # of iterations =  2.2

     total cpu time spent up to now is      297.5 secs

     total energy              =    -540.05171938 Ry
     estimated scf accuracy    <       4.39295292 Ry

     total magnetization       =     0.01 Bohr mag/cell
     absolute magnetization    =     0.01 Bohr mag/cell

     iteration #  9     ecut=    90.00 Ry     beta= 0.20
     Davidson diagonalization with overlap
     ethr =  1.00E-02,  avg # of iterations =  2.2

     total cpu time spent up to now is      305.9 secs

     total energy              =    -541.16799886 Ry
     estimated scf accuracy    <       7.02585307 Ry

     total magnetization       =     0.00 Bohr mag/cell
     absolute magnetization    =     0.01 Bohr mag/cell

     iteration # 10     ecut=    90.00 Ry     beta= 0.20
     Davidson diagonalization with overlap
     ethr =  1.00E-02,  avg # of iterations =  1.0

     negative rho (up, down):  3.520E-03 3.512E-03

     total cpu time spent up to now is      312.8 secs

     total energy              =    -537.55708372 Ry
     estimated scf accuracy    <      10.29074609 Ry

     total magnetization       =     0.01 Bohr mag/cell
     absolute magnetization    =     0.01 Bohr mag/cell

     iteration # 11     ecut=    90.00 Ry     beta= 0.20
     Davidson diagonalization with overlap
     ethr =  1.00E-02,  avg # of iterations =  2.8

     total cpu time spent up to now is      321.7 secs

     total energy              =    -539.08050662 Ry
     estimated scf accuracy    <      31.66529228 Ry

     total magnetization       =    -0.00 Bohr mag/cell
     absolute magnetization    =     0.00 Bohr mag/cell

     iteration # 12     ecut=    90.00 Ry     beta= 0.20
     Davidson diagonalization with overlap
     ethr =  1.00E-02,  avg # of iterations =  2.3

     negative rho (up, down):  8.702E-05 8.721E-05

     total cpu time spent up to now is      329.9 secs

     total energy              =    -540.64229123 Ry
     estimated scf accuracy    <       0.52673492 Ry

     total magnetization       =    -0.00 Bohr mag/cell
     absolute magnetization    =     0.00 Bohr mag/cell

     iteration # 13     ecut=    90.00 Ry     beta= 0.20
     Davidson diagonalization with overlap
     ethr =  1.70E-03,  avg # of iterations =  1.9

     negative rho (up, down):  5.720E-04 5.702E-04

     total cpu time spent up to now is      337.5 secs

     total energy              =    -541.13910169 Ry
     estimated scf accuracy    <      13.88543889 Ry

     total magnetization       =    -0.00 Bohr mag/cell
     absolute magnetization    =     0.00 Bohr mag/cell

     iteration # 14     ecut=    90.00 Ry     beta= 0.20
     Davidson diagonalization with overlap
     ethr =  1.70E-03,  avg # of iterations =  2.0

     total cpu time spent up to now is      345.7 secs

     total energy              =    -539.60579564 Ry
     estimated scf accuracy    <      13.37782731 Ry

     total magnetization       =    -0.01 Bohr mag/cell
     absolute magnetization    =     0.01 Bohr mag/cell

     iteration # 15     ecut=    90.00 Ry     beta= 0.20
     Davidson diagonalization with overlap
     ethr =  1.70E-03,  avg # of iterations =  2.8

     total cpu time spent up to now is      354.5 secs

     total energy              =    -540.31229418 Ry
     estimated scf accuracy    <       0.78564451 Ry

     total magnetization       =    -0.00 Bohr mag/cell
     absolute magnetization    =     0.00 Bohr mag/cell

     iteration # 16     ecut=    90.00 Ry     beta= 0.20
     Davidson diagonalization with overlap
     ethr =  1.70E-03,  avg # of iterations =  1.0

     total cpu time spent up to now is      361.3 secs

     total energy              =    -540.30260373 Ry
     estimated scf accuracy    <       0.13764719 Ry

     total magnetization       =    -0.00 Bohr mag/cell
     absolute magnetization    =     0.00 Bohr mag/cell

     iteration # 17     ecut=    90.00 Ry     beta= 0.20
     Davidson diagonalization with overlap
     ethr =  4.44E-04,  avg # of iterations =  2.5

     total cpu time spent up to now is      369.9 secs

     total energy              =    -540.39318217 Ry
     estimated scf accuracy    <       2.31440513 Ry

     total magnetization       =    -0.00 Bohr mag/cell
     absolute magnetization    =     0.00 Bohr mag/cell

     iteration # 18     ecut=    90.00 Ry     beta= 0.20
     Davidson diagonalization with overlap
     ethr =  4.44E-04,  avg # of iterations =  1.7

     total cpu time spent up to now is      377.2 secs

     total energy              =    -540.34393127 Ry
     estimated scf accuracy    <       1.97782141 Ry

     total magnetization       =    -0.00 Bohr mag/cell
     absolute magnetization    =     0.00 Bohr mag/cell

     iteration # 19     ecut=    90.00 Ry     beta= 0.20
     Davidson diagonalization with overlap
     ethr =  4.44E-04,  avg # of iterations =  1.8

     total cpu time spent up to now is      384.6 secs

     total energy              =    -540.38593224 Ry
     estimated scf accuracy    <       0.81288413 Ry

     total magnetization       =    -0.00 Bohr mag/cell
     absolute magnetization    =     0.00 Bohr mag/cell

     iteration # 20     ecut=    90.00 Ry     beta= 0.20
     Davidson diagonalization with overlap
     ethr =  4.44E-04,  avg # of iterations =  1.8

     total cpu time spent up to now is      392.1 secs

     total energy              =    -540.36002909 Ry
     estimated scf accuracy    <       2.02232964 Ry

     total magnetization       =    -0.00 Bohr mag/cell
     absolute magnetization    =     0.00 Bohr mag/cell

     iteration # 21     ecut=    90.00 Ry     beta= 0.20
     Davidson diagonalization with overlap
     ethr =  4.44E-04,  avg # of iterations =  1.0

     total cpu time spent up to now is      399.0 secs

     total energy              =    -540.27440433 Ry
     estimated scf accuracy    <       1.19548115 Ry

     total magnetization       =    -0.00 Bohr mag/cell
     absolute magnetization    =     0.01 Bohr mag/cell

     iteration # 22     ecut=    90.00 Ry     beta= 0.20
     Davidson diagonalization with overlap
     ethr =  4.44E-04,  avg # of iterations =  1.6

     total cpu time spent up to now is      406.1 secs

     total energy              =    -540.32134583 Ry
     estimated scf accuracy    <       0.01741594 Ry

     total magnetization       =    -0.01 Bohr mag/cell
     absolute magnetization    =     0.01 Bohr mag/cell

     iteration # 23     ecut=    90.00 Ry     beta= 0.20
     Davidson diagonalization with overlap
     ethr =  5.62E-05,  avg # of iterations =  2.5

     total cpu time spent up to now is      414.1 secs

     total energy              =    -540.32354290 Ry
     estimated scf accuracy    <       0.35936208 Ry

     total magnetization       =    -0.01 Bohr mag/cell
     absolute magnetization    =     0.01 Bohr mag/cell

     iteration # 24     ecut=    90.00 Ry     beta= 0.20
     Davidson diagonalization with overlap
     ethr =  5.62E-05,  avg # of iterations =  1.0

     total cpu time spent up to now is      420.9 secs

     total energy              =    -540.31600874 Ry
     estimated scf accuracy    <       0.20529989 Ry

     total magnetization       =    -0.01 Bohr mag/cell
     absolute magnetization    =     0.01 Bohr mag/cell

     iteration # 25     ecut=    90.00 Ry     beta= 0.20
     Davidson diagonalization with overlap
     ethr =  5.62E-05,  avg # of iterations =  1.3

     total cpu time spent up to now is      427.8 secs

     total energy              =    -540.31845333 Ry
     estimated scf accuracy    <       0.01868181 Ry

     total magnetization       =    -0.02 Bohr mag/cell
     absolute magnetization    =     0.02 Bohr mag/cell

     iteration # 26     ecut=    90.00 Ry     beta= 0.20
     Davidson diagonalization with overlap
     ethr =  5.62E-05,  avg # of iterations =  1.0

     total cpu time spent up to now is      434.6 secs

     total energy              =    -540.31815621 Ry
     estimated scf accuracy    <       0.00619928 Ry

     total magnetization       =    -0.02 Bohr mag/cell
     absolute magnetization    =     0.02 Bohr mag/cell

     iteration # 27     ecut=    90.00 Ry     beta= 0.20
     Davidson diagonalization with overlap
     ethr =  2.00E-05,  avg # of iterations =  1.1

     total cpu time spent up to now is      441.4 secs

     total energy              =    -540.31842970 Ry
     estimated scf accuracy    <       0.00025057 Ry

     total magnetization       =    -0.04 Bohr mag/cell
     absolute magnetization    =     0.04 Bohr mag/cell

     iteration # 28     ecut=    90.00 Ry     beta= 0.20
     Davidson diagonalization with overlap
     ethr =  8.08E-07,  avg # of iterations =  2.2

     total cpu time spent up to now is      449.1 secs

     total energy              =    -540.31846514 Ry
     estimated scf accuracy    <       0.00033449 Ry

     total magnetization       =    -0.04 Bohr mag/cell
     absolute magnetization    =     0.04 Bohr mag/cell

     iteration # 29     ecut=    90.00 Ry     beta= 0.20
     Davidson diagonalization with overlap
     ethr =  8.08E-07,  avg # of iterations =  1.0

     total cpu time spent up to now is      455.8 secs

     total energy              =    -540.31830948 Ry
     estimated scf accuracy    <       0.00070699 Ry

     total magnetization       =    -0.04 Bohr mag/cell
     absolute magnetization    =     0.04 Bohr mag/cell

     iteration # 30     ecut=    90.00 Ry     beta= 0.20
     Davidson diagonalization with overlap
     ethr =  8.08E-07,  avg # of iterations =  2.2

     total cpu time spent up to now is      464.3 secs

     total energy              =    -540.31835854 Ry
     estimated scf accuracy    <       0.00258479 Ry

     total magnetization       =    -0.04 Bohr mag/cell
     absolute magnetization    =     0.04 Bohr mag/cell

     iteration # 31     ecut=    90.00 Ry     beta= 0.20
     Davidson diagonalization with overlap
     ethr =  8.08E-07,  avg # of iterations =  1.2

     total cpu time spent up to now is      471.2 secs

     total energy              =    -540.31841517 Ry
     estimated scf accuracy    <       0.00002547 Ry

     total magnetization       =    -0.06 Bohr mag/cell
     absolute magnetization    =     0.06 Bohr mag/cell

     iteration # 32     ecut=    90.00 Ry     beta= 0.20
     Davidson diagonalization with overlap
     ethr =  8.22E-08,  avg # of iterations =  4.6

     total cpu time spent up to now is      482.4 secs

     total energy              =    -540.31840765 Ry
     estimated scf accuracy    <       0.00024521 Ry

     total magnetization       =    -0.02 Bohr mag/cell
     absolute magnetization    =     0.02 Bohr mag/cell

     iteration # 33     ecut=    90.00 Ry     beta= 0.20
     Davidson diagonalization with overlap
     ethr =  8.22E-08,  avg # of iterations =  2.6

     total cpu time spent up to now is      492.1 secs

     total energy              =    -540.31841558 Ry
     estimated scf accuracy    <       0.00004014 Ry

     total magnetization       =    -0.02 Bohr mag/cell
     absolute magnetization    =     0.02 Bohr mag/cell

     iteration # 34     ecut=    90.00 Ry     beta= 0.20
     Davidson diagonalization with overlap
     ethr =  8.22E-08,  avg # of iterations =  3.2

     total cpu time spent up to now is      501.7 secs

     total energy              =    -540.31839922 Ry
     estimated scf accuracy    <       0.00003482 Ry

     total magnetization       =    -0.03 Bohr mag/cell
     absolute magnetization    =     0.03 Bohr mag/cell

     iteration # 35     ecut=    90.00 Ry     beta= 0.20
     Davidson diagonalization with overlap
     ethr =  8.22E-08,  avg # of iterations =  2.8

     total cpu time spent up to now is      511.3 secs

     total energy              =    -540.31841433 Ry
     estimated scf accuracy    <       0.00001787 Ry

     total magnetization       =    -0.01 Bohr mag/cell
     absolute magnetization    =     0.01 Bohr mag/cell

     iteration # 36     ecut=    90.00 Ry     beta= 0.20
     Davidson diagonalization with overlap
     ethr =  5.76E-08,  avg # of iterations =  2.0

     total cpu time spent up to now is      519.1 secs

     total energy              =    -540.31841548 Ry
     estimated scf accuracy    <       0.00000188 Ry

     total magnetization       =    -0.00 Bohr mag/cell
     absolute magnetization    =     0.00 Bohr mag/cell

     iteration # 37     ecut=    90.00 Ry     beta= 0.20
     Davidson diagonalization with overlap
     ethr =  6.06E-09,  avg # of iterations =  2.1

     total cpu time spent up to now is      526.9 secs

     total energy              =    -540.31841548 Ry
     estimated scf accuracy    <       0.00000048 Ry

     total magnetization       =    -0.00 Bohr mag/cell
     absolute magnetization    =     0.00 Bohr mag/cell

     iteration # 38     ecut=    90.00 Ry     beta= 0.20
     Davidson diagonalization with overlap
     ethr =  1.55E-09,  avg # of iterations =  2.2

     total cpu time spent up to now is      535.1 secs

     total energy              =    -540.31841553 Ry
     estimated scf accuracy    <       0.00000008 Ry

     total magnetization       =    -0.00 Bohr mag/cell
     absolute magnetization    =     0.00 Bohr mag/cell

     iteration # 39     ecut=    90.00 Ry     beta= 0.20
     Davidson diagonalization with overlap
     ethr =  2.57E-10,  avg # of iterations =  4.4

     total cpu time spent up to now is      545.8 secs

     total energy              =    -540.31841557 Ry
     estimated scf accuracy    <       0.00000002 Ry

     total magnetization       =    -0.00 Bohr mag/cell
     absolute magnetization    =     0.00 Bohr mag/cell

     iteration # 40     ecut=    90.00 Ry     beta= 0.20
     Davidson diagonalization with overlap
     ethr =  5.88E-11,  avg # of iterations =  2.0

     Magnetic moment per site:
     atom:    1    charge:   11.6390    magn:   -0.0001    constr:    0.0000
     atom:    2    charge:   12.8014    magn:   -0.0031    constr:    0.0000

     total cpu time spent up to now is      553.9 secs

     End of self-consistent calculation

     Number of k-points >= 100: set verbosity='high' to print the bands.

     the Fermi energy is    16.5487 ev

!    total energy              =    -540.31841558 Ry
     estimated scf accuracy    <          7.7E-09 Ry
     smearing contrib. (-TS)   =      -0.00327844 Ry
     internal energy E=F+TS    =    -540.31513714 Ry

     The total energy is F=E-TS. E is the sum of the following terms:
     one-electron contribution =    -220.26001371 Ry
     hartree contribution      =     127.03781845 Ry
     xc contribution           =     -61.16845456 Ry
     ewald contribution        =    -309.77533523 Ry
     one-center paw contrib.   =     -76.14915209 Ry

     total magnetization       =    -0.00 Bohr mag/cell
     absolute magnetization    =     0.00 Bohr mag/cell

     convergence has been achieved in  40 iterations

     Forces acting on atoms (cartesian axes, Ry/au):

     atom    1 type  1   force =     0.00000035   -0.00000004    0.00000092
     atom    2 type  2   force =    -0.00000035    0.00000004   -0.00000092

     Total force =     0.000001     Total SCF correction =     0.000003
     SCF correction compared to forces is large: reduce conv_thr to get better values


     Computing stress (Cartesian axis) and pressure

          total   stress  (Ry/bohr**3)                   (kbar)     P=     -131.13
  -0.00089144  -0.00000001  -0.00000002         -131.14       -0.00       -0.00
  -0.00000001  -0.00089134  -0.00000003           -0.00     -131.12       -0.00
  -0.00000002  -0.00000003  -0.00089139           -0.00       -0.00     -131.13

     Energy error            =      8.3E-01
     Gradient error          =      9.2E-07
     Cell gradient error     =      8.9E-04


     number of scf cycles    =   2
     number of bfgs steps    =   1

     enthalpy old            =    -539.4854582094 Ry
     enthalpy new            =    -540.3184155793 Ry

     CASE: enthalpy_new < enthalpy_old

     new trust radius        =       0.0200890148 bohr
     new conv_thr            =            1.0E-10 Ry

     new unit-cell volume =    166.90499 a.u.^3 (    24.73277 Ang^3 )
     density =      7.43789 g/cm^3

CELL_PARAMETERS (alat=  6.90484737)
  -0.632885082   0.000000059   0.632886689
  -0.000000531   0.632887445   0.632886216
  -0.632885082   0.632887918   0.000000059

ATOMIC_POSITIONS (alat)
Mn            0.6328843587        0.6328871628        0.6328862107
Fe           -0.0000000731        0.0000000168       -0.0000002598



     Writing output data file ./pwscf.save/
     NEW-OLD atomic charge density approx. for the potential

     Check: negative core charge=   -0.000050
     extrapolated charge   30.28600, renormalised to   31.00000
     Generating pointlists ...

     total cpu time spent up to now is      558.3 secs

     Self-consistent Calculation

     iteration #  1     ecut=    90.00 Ry     beta= 0.20
     Davidson diagonalization with overlap
     c_bands:  1 eigenvalues not converged
     c_bands:  1 eigenvalues not converged
     c_bands:  1 eigenvalues not converged
     c_bands:  1 eigenvalues not converged
     c_bands:  1 eigenvalues not converged
     ethr =  1.00E-06,  avg # of iterations = 11.1

     total cpu time spent up to now is      585.5 secs

     total energy              =    -539.66048599 Ry
     estimated scf accuracy    <       1.32486044 Ry

     total magnetization       =    -0.00 Bohr mag/cell
     absolute magnetization    =     0.00 Bohr mag/cell

     iteration #  2     ecut=    90.00 Ry     beta= 0.20
     Davidson diagonalization with overlap
     ethr =  4.27E-03,  avg # of iterations =  2.8

     total cpu time spent up to now is      594.7 secs

     total energy              =    -540.01514226 Ry
     estimated scf accuracy    <      10.81672573 Ry

     total magnetization       =    -0.00 Bohr mag/cell
     absolute magnetization    =     0.00 Bohr mag/cell

     iteration #  3     ecut=    90.00 Ry     beta= 0.20
     Davidson diagonalization with overlap
     ethr =  4.27E-03,  avg # of iterations =  1.7

     total cpu time spent up to now is      602.1 secs

     total energy              =    -540.33680282 Ry
     estimated scf accuracy    <       0.27859050 Ry

     total magnetization       =    -0.00 Bohr mag/cell
     absolute magnetization    =     0.00 Bohr mag/cell

     iteration #  4     ecut=    90.00 Ry     beta= 0.20
     Davidson diagonalization with overlap
     ethr =  8.99E-04,  avg # of iterations =  1.3

     total cpu time spent up to now is      609.0 secs

     total energy              =    -540.32189706 Ry
     estimated scf accuracy    <       0.25546060 Ry

     total magnetization       =    -0.00 Bohr mag/cell
     absolute magnetization    =     0.00 Bohr mag/cell

     iteration #  5     ecut=    90.00 Ry     beta= 0.20
     Davidson diagonalization with overlap
     ethr =  8.24E-04,  avg # of iterations =  1.0

     total cpu time spent up to now is      615.8 secs

     total energy              =    -540.32738819 Ry
     estimated scf accuracy    <       0.04617081 Ry

     total magnetization       =    -0.00 Bohr mag/cell
     absolute magnetization    =     0.00 Bohr mag/cell

     iteration #  6     ecut=    90.00 Ry     beta= 0.20
     Davidson diagonalization with overlap
     ethr =  1.49E-04,  avg # of iterations =  1.1

     total cpu time spent up to now is      622.7 secs

     total energy              =    -540.32619740 Ry
     estimated scf accuracy    <       0.04280613 Ry

     total magnetization       =    -0.00 Bohr mag/cell
     absolute magnetization    =     0.00 Bohr mag/cell

     iteration #  7     ecut=    90.00 Ry     beta= 0.20
     Davidson diagonalization with overlap
     ethr =  1.38E-04,  avg # of iterations =  1.0

     total cpu time spent up to now is      629.5 secs

     total energy              =    -540.32117063 Ry
     estimated scf accuracy    <       0.04507562 Ry

     total magnetization       =    -0.00 Bohr mag/cell
     absolute magnetization    =     0.00 Bohr mag/cell

     iteration #  8     ecut=    90.00 Ry     beta= 0.20
     Davidson diagonalization with overlap
     ethr =  1.38E-04,  avg # of iterations =  1.0

     total cpu time spent up to now is      636.3 secs

     total energy              =    -540.32005586 Ry
     estimated scf accuracy    <       0.00907764 Ry

     total magnetization       =    -0.00 Bohr mag/cell
     absolute magnetization    =     0.00 Bohr mag/cell

     iteration #  9     ecut=    90.00 Ry     beta= 0.20
     Davidson diagonalization with overlap
     ethr =  2.93E-05,  avg # of iterations =  2.0

     total cpu time spent up to now is      644.4 secs

     total energy              =    -540.32156800 Ry
     estimated scf accuracy    <       0.00013640 Ry

     total magnetization       =    -0.00 Bohr mag/cell
     absolute magnetization    =     0.00 Bohr mag/cell

     iteration # 10     ecut=    90.00 Ry     beta= 0.20
     Davidson diagonalization with overlap
     ethr =  4.40E-07,  avg # of iterations =  5.9

     total cpu time spent up to now is      659.8 secs

     total energy              =    -540.32094047 Ry
     estimated scf accuracy    <       0.00487442 Ry

     total magnetization       =    -0.00 Bohr mag/cell
     absolute magnetization    =     0.00 Bohr mag/cell

     iteration # 11     ecut=    90.00 Ry     beta= 0.20
     Davidson diagonalization with overlap
     ethr =  4.40E-07,  avg # of iterations =  4.6

     total cpu time spent up to now is      672.3 secs

     total energy              =    -540.32139440 Ry
     estimated scf accuracy    <       0.00004857 Ry

     total magnetization       =    -0.00 Bohr mag/cell
     absolute magnetization    =     0.00 Bohr mag/cell

     iteration # 12     ecut=    90.00 Ry     beta= 0.20
     Davidson diagonalization with overlap
     ethr =  1.57E-07,  avg # of iterations =  2.5

     total cpu time spent up to now is      680.3 secs

     total energy              =    -540.32139810 Ry
     estimated scf accuracy    <       0.00001807 Ry

     total magnetization       =    -0.00 Bohr mag/cell
     absolute magnetization    =     0.00 Bohr mag/cell

     iteration # 13     ecut=    90.00 Ry     beta= 0.20
     Davidson diagonalization with overlap
     ethr =  5.83E-08,  avg # of iterations =  3.3

     total cpu time spent up to now is      688.6 secs

     total energy              =    -540.32140114 Ry
     estimated scf accuracy    <       0.00001040 Ry

     total magnetization       =    -0.00 Bohr mag/cell
     absolute magnetization    =     0.00 Bohr mag/cell

     iteration # 14     ecut=    90.00 Ry     beta= 0.20
     Davidson diagonalization with overlap
     ethr =  3.35E-08,  avg # of iterations =  1.8

     total cpu time spent up to now is      695.9 secs

     total energy              =    -540.32140062 Ry
     estimated scf accuracy    <       0.00001263 Ry

     total magnetization       =    -0.00 Bohr mag/cell
     absolute magnetization    =     0.00 Bohr mag/cell

     iteration # 15     ecut=    90.00 Ry     beta= 0.20
     Davidson diagonalization with overlap
     ethr =  3.35E-08,  avg # of iterations =  1.1

     total cpu time spent up to now is      702.6 secs

     total energy              =    -540.32140073 Ry
     estimated scf accuracy    <       0.00000742 Ry

     total magnetization       =    -0.00 Bohr mag/cell
     absolute magnetization    =     0.00 Bohr mag/cell

     iteration # 16     ecut=    90.00 Ry     beta= 0.20
     Davidson diagonalization with overlap
     ethr =  2.39E-08,  avg # of iterations =  1.0

     total cpu time spent up to now is      709.4 secs

     total energy              =    -540.32140148 Ry
     estimated scf accuracy    <       0.00000357 Ry

     total magnetization       =    -0.01 Bohr mag/cell
     absolute magnetization    =     0.01 Bohr mag/cell

     iteration # 17     ecut=    90.00 Ry     beta= 0.20
     Davidson diagonalization with overlap
     ethr =  1.15E-08,  avg # of iterations =  1.0

     total cpu time spent up to now is      716.1 secs

     total energy              =    -540.32140298 Ry
     estimated scf accuracy    <       0.00000485 Ry

     total magnetization       =    -0.01 Bohr mag/cell
     absolute magnetization    =     0.01 Bohr mag/cell

     iteration # 18     ecut=    90.00 Ry     beta= 0.20
     Davidson diagonalization with overlap
     ethr =  1.15E-08,  avg # of iterations =  2.0

     total cpu time spent up to now is      724.1 secs

     total energy              =    -540.32140038 Ry
     estimated scf accuracy    <       0.00001308 Ry

     total magnetization       =    -0.00 Bohr mag/cell
     absolute magnetization    =     0.00 Bohr mag/cell

     iteration # 19     ecut=    90.00 Ry     beta= 0.20
     Davidson diagonalization with overlap
     ethr =  1.15E-08,  avg # of iterations =  2.0

     total cpu time spent up to now is      732.3 secs

     total energy              =    -540.32140142 Ry
     estimated scf accuracy    <       0.00000226 Ry

     total magnetization       =    -0.01 Bohr mag/cell
     absolute magnetization    =     0.01 Bohr mag/cell

     iteration # 20     ecut=    90.00 Ry     beta= 0.20
     Davidson diagonalization with overlap
     ethr =  7.30E-09,  avg # of iterations =  1.0

     total cpu time spent up to now is      739.0 secs

     total energy              =    -540.32140028 Ry
     estimated scf accuracy    <       0.00000297 Ry

     total magnetization       =    -0.01 Bohr mag/cell
     absolute magnetization    =     0.01 Bohr mag/cell

     iteration # 21     ecut=    90.00 Ry     beta= 0.20
     Davidson diagonalization with overlap
     ethr =  7.30E-09,  avg # of iterations =  2.0

     total cpu time spent up to now is      747.6 secs

     total energy              =    -540.32140066 Ry
     estimated scf accuracy    <       0.00000037 Ry

     total magnetization       =    -0.01 Bohr mag/cell
     absolute magnetization    =     0.01 Bohr mag/cell

     iteration # 22     ecut=    90.00 Ry     beta= 0.20
     Davidson diagonalization with overlap
     ethr =  1.18E-09,  avg # of iterations =  2.1

     total cpu time spent up to now is      755.2 secs

     total energy              =    -540.32140081 Ry
     estimated scf accuracy    <       0.00000034 Ry

     total magnetization       =    -0.01 Bohr mag/cell
     absolute magnetization    =     0.01 Bohr mag/cell

     iteration # 23     ecut=    90.00 Ry     beta= 0.20
     Davidson diagonalization with overlap
     ethr =  1.09E-09,  avg # of iterations =  3.3

     total cpu time spent up to now is      765.0 secs

     total energy              =    -540.32140069 Ry
     estimated scf accuracy    <       0.00000050 Ry

     total magnetization       =    -0.01 Bohr mag/cell
     absolute magnetization    =     0.01 Bohr mag/cell

     iteration # 24     ecut=    90.00 Ry     beta= 0.20
     Davidson diagonalization with overlap
     ethr =  1.09E-09,  avg # of iterations =  2.0

     total cpu time spent up to now is      773.1 secs

     total energy              =    -540.32140075 Ry
     estimated scf accuracy    <       0.00000014 Ry

     total magnetization       =    -0.01 Bohr mag/cell
     absolute magnetization    =     0.01 Bohr mag/cell

     iteration # 25     ecut=    90.00 Ry     beta= 0.20
     Davidson diagonalization with overlap
     ethr =  4.62E-10,  avg # of iterations =  1.2

     total cpu time spent up to now is      779.9 secs

     total energy              =    -540.32140034 Ry
     estimated scf accuracy    <       0.00000015 Ry

     total magnetization       =    -0.01 Bohr mag/cell
     absolute magnetization    =     0.01 Bohr mag/cell

     iteration # 26     ecut=    90.00 Ry     beta= 0.20
     Davidson diagonalization with overlap
     ethr =  4.62E-10,  avg # of iterations =  2.0

     total cpu time spent up to now is      787.8 secs

     total energy              =    -540.32140062 Ry
     estimated scf accuracy    <       0.00000005 Ry

     total magnetization       =    -0.00 Bohr mag/cell
     absolute magnetization    =     0.00 Bohr mag/cell

     iteration # 27     ecut=    90.00 Ry     beta= 0.20
     Davidson diagonalization with overlap
     ethr =  1.73E-10,  avg # of iterations =  1.3

     total cpu time spent up to now is      794.7 secs

     total energy              =    -540.32140062 Ry
     estimated scf accuracy    <       0.00000002 Ry

     total magnetization       =    -0.00 Bohr mag/cell
     absolute magnetization    =     0.00 Bohr mag/cell

     iteration # 28     ecut=    90.00 Ry     beta= 0.20
     Davidson diagonalization with overlap
     ethr =  5.44E-11,  avg # of iterations =  2.3

     total cpu time spent up to now is      802.8 secs

     total energy              =    -540.32140073 Ry
     estimated scf accuracy    <       0.00000001 Ry

     total magnetization       =    -0.00 Bohr mag/cell
     absolute magnetization    =     0.00 Bohr mag/cell

     iteration # 29     ecut=    90.00 Ry     beta= 0.20
     Davidson diagonalization with overlap
     ethr =  3.99E-11,  avg # of iterations =  2.0

     total cpu time spent up to now is      810.9 secs

     total energy              =    -540.32140073 Ry
     estimated scf accuracy    <          2.0E-09 Ry

     total magnetization       =    -0.00 Bohr mag/cell
     absolute magnetization    =     0.00 Bohr mag/cell

     iteration # 30     ecut=    90.00 Ry     beta= 0.20
     Davidson diagonalization with overlap
     ethr =  6.31E-12,  avg # of iterations =  1.7

     total cpu time spent up to now is      818.1 secs

     total energy              =    -540.32140073 Ry
     estimated scf accuracy    <          3.0E-10 Ry

     total magnetization       =    -0.00 Bohr mag/cell
     absolute magnetization    =     0.00 Bohr mag/cell

     iteration # 31     ecut=    90.00 Ry     beta= 0.20
     Davidson diagonalization with overlap
     ethr =  9.81E-13,  avg # of iterations =  4.0

     Magnetic moment per site:
     atom:    1    charge:   11.6457    magn:   -0.0001    constr:    0.0000
     atom:    2    charge:   12.8083    magn:   -0.0028    constr:    0.0000

     total cpu time spent up to now is      827.9 secs

     End of self-consistent calculation

     Number of k-points >= 100: set verbosity='high' to print the bands.

     the Fermi energy is    17.0345 ev

!    total energy              =    -540.32140073 Ry
     estimated scf accuracy    <          9.5E-11 Ry
     smearing contrib. (-TS)   =      -0.00317669 Ry
     internal energy E=F+TS    =    -540.31822404 Ry

     The total energy is F=E-TS. E is the sum of the following terms:
     one-electron contribution =    -216.46026617 Ry
     hartree contribution      =     125.67106376 Ry
     xc contribution           =     -61.20542727 Ry
     ewald contribution        =    -312.17401335 Ry
     one-center paw contrib.   =     -76.14958100 Ry

     total magnetization       =    -0.00 Bohr mag/cell
     absolute magnetization    =     0.00 Bohr mag/cell

     convergence has been achieved in  31 iterations

     Forces acting on atoms (cartesian axes, Ry/au):

     atom    1 type  1   force =     0.00000011   -0.00000008    0.00000025
     atom    2 type  2   force =    -0.00000011    0.00000008   -0.00000025

     Total force =     0.000000     Total SCF correction =     0.000000
     SCF correction compared to forces is large: reduce conv_thr to get better values


     Computing stress (Cartesian axis) and pressure

          total   stress  (Ry/bohr**3)                   (kbar)     P=      -92.79
  -0.00063081  -0.00000001   0.00000000          -92.80       -0.00        0.00
  -0.00000001  -0.00063079  -0.00000000           -0.00      -92.79       -0.00
   0.00000000  -0.00000000  -0.00063080            0.00       -0.00      -92.79

     Energy error            =      3.0E-03
     Gradient error          =      2.5E-07
     Cell gradient error     =      6.3E-04


     number of scf cycles    =   3
     number of bfgs steps    =   2

     enthalpy old            =    -540.3184155793 Ry
     enthalpy new            =    -540.3214007307 Ry

     CASE: enthalpy_new < enthalpy_old

     new trust radius        =       0.0300175794 bohr
     new conv_thr            =            1.0E-10 Ry

     new unit-cell volume =    161.15564 a.u.^3 (    23.88080 Ang^3 )
     density =      7.70324 g/cm^3

CELL_PARAMETERS (alat=  6.90484737)
  -0.625532429   0.000000311   0.625534526
  -0.000000662   0.625535785   0.625534176
  -0.625532844   0.625536550  -0.000000104

ATOMIC_POSITIONS (alat)
Mn            0.6255317675        0.6255351905        0.6255344272
Fe           -0.0000001237        0.0000000558       -0.0000003745



     Writing output data file ./pwscf.save/
     NEW-OLD atomic charge density approx. for the potential

     Check: negative core charge=   -0.000048
     extrapolated charge   29.91191, renormalised to   31.00000
     Generating pointlists ...

     total cpu time spent up to now is      832.4 secs

     Self-consistent Calculation

     iteration #  1     ecut=    90.00 Ry     beta= 0.20
     Davidson diagonalization with overlap
     ethr =  1.00E-06,  avg # of iterations = 11.5

     total cpu time spent up to now is      861.6 secs

     total energy              =    -538.92906154 Ry
     estimated scf accuracy    <       2.75537616 Ry

     total magnetization       =    -0.00 Bohr mag/cell
     absolute magnetization    =     0.00 Bohr mag/cell

     iteration #  2     ecut=    90.00 Ry     beta= 0.20
     Davidson diagonalization with overlap
     ethr =  8.89E-03,  avg # of iterations =  2.8

     total cpu time spent up to now is      870.9 secs

     total energy              =    -539.91586297 Ry
     estimated scf accuracy    <      14.40545041 Ry

     total magnetization       =    -0.00 Bohr mag/cell
     absolute magnetization    =     0.00 Bohr mag/cell

     iteration #  3     ecut=    90.00 Ry     beta= 0.20
     Davidson diagonalization with overlap
     ethr =  8.89E-03,  avg # of iterations =  1.6

     total cpu time spent up to now is      878.1 secs

     total energy              =    -540.35800833 Ry
     estimated scf accuracy    <       0.59115773 Ry

     total magnetization       =    -0.00 Bohr mag/cell
     absolute magnetization    =     0.00 Bohr mag/cell

     iteration #  4     ecut=    90.00 Ry     beta= 0.20
     Davidson diagonalization with overlap
     ethr =  1.91E-03,  avg # of iterations =  1.3

     total cpu time spent up to now is      885.2 secs

     total energy              =    -540.32190400 Ry
     estimated scf accuracy    <       0.51420219 Ry

     total magnetization       =    -0.00 Bohr mag/cell
     absolute magnetization    =     0.00 Bohr mag/cell

     iteration #  5     ecut=    90.00 Ry     beta= 0.20
     Davidson diagonalization with overlap
     ethr =  1.66E-03,  avg # of iterations =  1.0

     total cpu time spent up to now is      892.0 secs

     total energy              =    -540.33622507 Ry
     estimated scf accuracy    <       0.07740036 Ry

     total magnetization       =    -0.00 Bohr mag/cell
     absolute magnetization    =     0.00 Bohr mag/cell

     iteration #  6     ecut=    90.00 Ry     beta= 0.20
     Davidson diagonalization with overlap
     ethr =  2.50E-04,  avg # of iterations =  1.2

     total cpu time spent up to now is      898.9 secs

     total energy              =    -540.33567044 Ry
     estimated scf accuracy    <       0.07521890 Ry

     total magnetization       =    -0.00 Bohr mag/cell
     absolute magnetization    =     0.00 Bohr mag/cell

     iteration #  7     ecut=    90.00 Ry     beta= 0.20
     Davidson diagonalization with overlap
     ethr =  2.43E-04,  avg # of iterations =  1.1

     total cpu time spent up to now is      905.7 secs

     total energy              =    -540.33263387 Ry
     estimated scf accuracy    <       0.08684469 Ry

     total magnetization       =    -0.00 Bohr mag/cell
     absolute magnetization    =     0.00 Bohr mag/cell

     iteration #  8     ecut=    90.00 Ry     beta= 0.20
     Davidson diagonalization with overlap
     ethr =  2.43E-04,  avg # of iterations =  1.0

     total cpu time spent up to now is      912.5 secs

     total energy              =    -540.31872912 Ry
     estimated scf accuracy    <       0.06493499 Ry

     total magnetization       =    -0.00 Bohr mag/cell
     absolute magnetization    =     0.00 Bohr mag/cell

     iteration #  9     ecut=    90.00 Ry     beta= 0.20
     Davidson diagonalization with overlap
     ethr =  2.09E-04,  avg # of iterations =  2.0

     total cpu time spent up to now is      920.2 secs

     total energy              =    -540.32288463 Ry
     estimated scf accuracy    <       0.00195809 Ry

     total magnetization       =    -0.00 Bohr mag/cell
     absolute magnetization    =     0.00 Bohr mag/cell

     iteration # 10     ecut=    90.00 Ry     beta= 0.20
     Davidson diagonalization with overlap
     ethr =  6.32E-06,  avg # of iterations =  3.6

     total cpu time spent up to now is      930.5 secs

     total energy              =    -540.32381971 Ry
     estimated scf accuracy    <       0.00108921 Ry

     total magnetization       =    -0.00 Bohr mag/cell
     absolute magnetization    =     0.00 Bohr mag/cell

     iteration # 11     ecut=    90.00 Ry     beta= 0.20
     Davidson diagonalization with overlap
     ethr =  3.51E-06,  avg # of iterations =  1.0

     total cpu time spent up to now is      937.3 secs

     total energy              =    -540.32377878 Ry
     estimated scf accuracy    <       0.00078169 Ry

     total magnetization       =    -0.00 Bohr mag/cell
     absolute magnetization    =     0.00 Bohr mag/cell

     iteration # 12     ecut=    90.00 Ry     beta= 0.20
     Davidson diagonalization with overlap
     ethr =  2.52E-06,  avg # of iterations =  1.0

     total cpu time spent up to now is      944.1 secs

     total energy              =    -540.32378810 Ry
     estimated scf accuracy    <       0.00006761 Ry

     total magnetization       =    -0.00 Bohr mag/cell
     absolute magnetization    =     0.00 Bohr mag/cell

     iteration # 13     ecut=    90.00 Ry     beta= 0.20
     Davidson diagonalization with overlap
     ethr =  2.18E-07,  avg # of iterations =  2.1

     total cpu time spent up to now is      952.3 secs

     total energy              =    -540.32379202 Ry
     estimated scf accuracy    <       0.00003881 Ry

     total magnetization       =    -0.00 Bohr mag/cell
     absolute magnetization    =     0.00 Bohr mag/cell

     iteration # 14     ecut=    90.00 Ry     beta= 0.20
     Davidson diagonalization with overlap
     ethr =  1.25E-07,  avg # of iterations =  1.1

     total cpu time spent up to now is      959.1 secs

     total energy              =    -540.32379062 Ry
     estimated scf accuracy    <       0.00000883 Ry

     total magnetization       =    -0.00 Bohr mag/cell
     absolute magnetization    =     0.00 Bohr mag/cell

     iteration # 15     ecut=    90.00 Ry     beta= 0.20
     Davidson diagonalization with overlap
     ethr =  2.85E-08,  avg # of iterations =  3.3

     total cpu time spent up to now is      968.4 secs

     total energy              =    -540.32379294 Ry
     estimated scf accuracy    <       0.00000699 Ry

     total magnetization       =    -0.00 Bohr mag/cell
     absolute magnetization    =     0.00 Bohr mag/cell

     iteration # 16     ecut=    90.00 Ry     beta= 0.20
     Davidson diagonalization with overlap
     ethr =  2.25E-08,  avg # of iterations =  1.1

     total cpu time spent up to now is      975.2 secs

     total energy              =    -540.32379386 Ry
     estimated scf accuracy    <       0.00000931 Ry

     total magnetization       =    -0.00 Bohr mag/cell
     absolute magnetization    =     0.00 Bohr mag/cell

     iteration # 17     ecut=    90.00 Ry     beta= 0.20
     Davidson diagonalization with overlap
     ethr =  2.25E-08,  avg # of iterations =  1.2

     total cpu time spent up to now is      982.2 secs

     total energy              =    -540.32379450 Ry
     estimated scf accuracy    <       0.00001210 Ry

     total magnetization       =    -0.01 Bohr mag/cell
     absolute magnetization    =     0.01 Bohr mag/cell

     iteration # 18     ecut=    90.00 Ry     beta= 0.20
     Davidson diagonalization with overlap
     ethr =  2.25E-08,  avg # of iterations =  1.0

     total cpu time spent up to now is      988.9 secs

     total energy              =    -540.32378925 Ry
     estimated scf accuracy    <       0.00001345 Ry

     total magnetization       =    -0.01 Bohr mag/cell
     absolute magnetization    =     0.01 Bohr mag/cell

     iteration # 19     ecut=    90.00 Ry     beta= 0.20
     Davidson diagonalization with overlap
     ethr =  2.25E-08,  avg # of iterations =  2.2

     total cpu time spent up to now is      997.2 secs

     total energy              =    -540.32379182 Ry
     estimated scf accuracy    <       0.00000056 Ry

     total magnetization       =    -0.01 Bohr mag/cell
     absolute magnetization    =     0.01 Bohr mag/cell

     iteration # 20     ecut=    90.00 Ry     beta= 0.20
     Davidson diagonalization with overlap
     ethr =  1.82E-09,  avg # of iterations =  3.1

     total cpu time spent up to now is     1005.8 secs

     total energy              =    -540.32379286 Ry
     estimated scf accuracy    <       0.00000068 Ry

     total magnetization       =    -0.01 Bohr mag/cell
     absolute magnetization    =     0.01 Bohr mag/cell

     iteration # 21     ecut=    90.00 Ry     beta= 0.20
     Davidson diagonalization with overlap
     ethr =  1.82E-09,  avg # of iterations =  4.9

     total cpu time spent up to now is     1018.6 secs

     total energy              =    -540.32379019 Ry
     estimated scf accuracy    <       0.00001062 Ry

     total magnetization       =    -0.01 Bohr mag/cell
     absolute magnetization    =     0.01 Bohr mag/cell

     iteration # 22     ecut=    90.00 Ry     beta= 0.20
     Davidson diagonalization with overlap
     ethr =  1.82E-09,  avg # of iterations =  3.9

     total cpu time spent up to now is     1030.0 secs

     total energy              =    -540.32379099 Ry
     estimated scf accuracy    <       0.00000192 Ry

     total magnetization       =    -0.00 Bohr mag/cell
     absolute magnetization    =     0.00 Bohr mag/cell

     iteration # 23     ecut=    90.00 Ry     beta= 0.20
     Davidson diagonalization with overlap
     ethr =  1.82E-09,  avg # of iterations =  5.1

     total cpu time spent up to now is     1043.7 secs

     total energy              =    -540.32378969 Ry
     estimated scf accuracy    <       0.00000692 Ry

     total magnetization       =    -0.01 Bohr mag/cell
     absolute magnetization    =     0.01 Bohr mag/cell

     iteration # 24     ecut=    90.00 Ry     beta= 0.20
     Davidson diagonalization with overlap
     ethr =  1.82E-09,  avg # of iterations =  5.1

     total cpu time spent up to now is     1057.4 secs

     total energy              =    -540.32379182 Ry
     estimated scf accuracy    <       0.00000050 Ry

     total magnetization       =    -0.01 Bohr mag/cell
     absolute magnetization    =     0.01 Bohr mag/cell

     iteration # 25     ecut=    90.00 Ry     beta= 0.20
     Davidson diagonalization with overlap
     ethr =  1.61E-09,  avg # of iterations =  2.1

     total cpu time spent up to now is     1065.8 secs

     total energy              =    -540.32379108 Ry
     estimated scf accuracy    <       0.00000184 Ry

     total magnetization       =    -0.00 Bohr mag/cell
     absolute magnetization    =     0.00 Bohr mag/cell

     iteration # 26     ecut=    90.00 Ry     beta= 0.20
     Davidson diagonalization with overlap
     ethr =  1.61E-09,  avg # of iterations =  3.0

     total cpu time spent up to now is     1075.9 secs

     total energy              =    -540.32379148 Ry
     estimated scf accuracy    <       0.00000004 Ry

     total magnetization       =    -0.00 Bohr mag/cell
     absolute magnetization    =     0.00 Bohr mag/cell

     iteration # 27     ecut=    90.00 Ry     beta= 0.20
     Davidson diagonalization with overlap
     ethr =  1.20E-10,  avg # of iterations =  3.1

     total cpu time spent up to now is     1084.5 secs

     total energy              =    -540.32379159 Ry
     estimated scf accuracy    <       0.00000004 Ry

     total magnetization       =    -0.00 Bohr mag/cell
     absolute magnetization    =     0.00 Bohr mag/cell

     iteration # 28     ecut=    90.00 Ry     beta= 0.20
     Davidson diagonalization with overlap
     ethr =  1.20E-10,  avg # of iterations =  2.2

     total cpu time spent up to now is     1093.1 secs

     total energy              =    -540.32379159 Ry
     estimated scf accuracy    <       0.00000004 Ry

     total magnetization       =    -0.00 Bohr mag/cell
     absolute magnetization    =     0.00 Bohr mag/cell

     iteration # 29     ecut=    90.00 Ry     beta= 0.20
     Davidson diagonalization with overlap
     ethr =  1.20E-10,  avg # of iterations =  1.0

     total cpu time spent up to now is     1099.9 secs

     total energy              =    -540.32379159 Ry
     estimated scf accuracy    <          9.1E-09 Ry

     total magnetization       =    -0.00 Bohr mag/cell
     absolute magnetization    =     0.00 Bohr mag/cell

     iteration # 30     ecut=    90.00 Ry     beta= 0.20
     Davidson diagonalization with overlap
     ethr =  2.93E-11,  avg # of iterations =  2.0

     total cpu time spent up to now is     1108.0 secs

     total energy              =    -540.32379159 Ry
     estimated scf accuracy    <          1.1E-09 Ry

     total magnetization       =    -0.00 Bohr mag/cell
     absolute magnetization    =     0.00 Bohr mag/cell

     iteration # 31     ecut=    90.00 Ry     beta= 0.20
     Davidson diagonalization with overlap
     ethr =  3.59E-12,  avg # of iterations =  2.6

     total cpu time spent up to now is     1116.0 secs

     total energy              =    -540.32379159 Ry
     estimated scf accuracy    <          6.8E-10 Ry

     total magnetization       =    -0.00 Bohr mag/cell
     absolute magnetization    =     0.00 Bohr mag/cell

     iteration # 32     ecut=    90.00 Ry     beta= 0.20
     Davidson diagonalization with overlap
     ethr =  2.20E-12,  avg # of iterations =  1.7

     total cpu time spent up to now is     1123.6 secs

     total energy              =    -540.32379159 Ry
     estimated scf accuracy    <          6.4E-10 Ry

     total magnetization       =    -0.00 Bohr mag/cell
     absolute magnetization    =     0.00 Bohr mag/cell

     iteration # 33     ecut=    90.00 Ry     beta= 0.20
     Davidson diagonalization with overlap
     ethr =  2.08E-12,  avg # of iterations =  1.9

     total cpu time spent up to now is     1131.4 secs

     total energy              =    -540.32379158 Ry
     estimated scf accuracy    <          5.7E-10 Ry

     total magnetization       =    -0.00 Bohr mag/cell
     absolute magnetization    =     0.00 Bohr mag/cell

     iteration # 34     ecut=    90.00 Ry     beta= 0.20
     Davidson diagonalization with overlap
     ethr =  1.84E-12,  avg # of iterations =  3.8

     total cpu time spent up to now is     1142.3 secs

[...]
     Sum        2749     925    283                95097    18197    3143



     bravais-lattice index     =            2
     lattice parameter (alat)  =       6.9048  a.u.
     unit-cell volume          =     159.0075 (a.u.)^3
     number of atoms/cell      =            2
     number of atomic types    =            2
     number of electrons       =        31.00
     number of Kohn-Sham states=           20
     kinetic-energy cutoff     =      90.0000  Ry
     charge density cutoff     =    1080.0000  Ry
     scf convergence threshold =      1.0E-10
     mixing beta               =       0.2000
     number of iterations used =            8  plain     mixing
     press convergence thresh. =      1.0E-01
     Exchange-correlation= SLA  PW   PBX  PBC
                           (   1   4   3   4   0   0   0)

     celldm(1)=   6.904847  celldm(2)=   0.000000  celldm(3)=   0.000000
     celldm(4)=   0.000000  celldm(5)=   0.000000  celldm(6)=   0.000000

     crystal axes: (cart. coord. in units of alat)
               a(1) = (  -0.622739   0.000000   0.622743 )  
               a(2) = (  -0.000001   0.622744   0.622742 )  
               a(3) = (  -0.622740   0.622746  -0.000000 )  

     reciprocal axes: (cart. coord. in units 2 pi/alat)
               b(1) = ( -0.802905 -0.802898  0.802899 )  
               b(2) = (  0.802905  0.802899  0.802900 )  
               b(3) = ( -0.802903  0.802895 -0.802899 )  


     PseudoPot. # 1 for Mn read from file:
     /opt/QEpot/SSSP_efficiency_pseudos/mn_pbe_v1.5.uspp.F.UPF
     MD5 check sum: 82ef2b46521d7a7d9e736dc3972e4928
     Pseudo is Ultrasoft + core correction, Zval = 15.0
     Generated by new atomic code, or converted to UPF format
     Using radial grid of  859 points,  6 beta functions with: 
                l(1) =   0
                l(2) =   0
                l(3) =   1
                l(4) =   1
                l(5) =   2
                l(6) =   2
     Q(r) pseudized with  8 coefficients,  rinner =    0.950   0.950   0.950
                                                       0.950   0.950

     PseudoPot. # 2 for Fe read from file:
     /opt/QEpot/SSSP_efficiency_pseudos/Fe.pbe-spn-kjpaw_psl.0.2.1.UPF
     MD5 check sum: e86618425769142926afa95317d90200
     Pseudo is Projector augmented-wave + core cor, Zval = 16.0
     Generated using "atomic" code by A. Dal Corso  v.5.0.99 svn rev. 10869
     Shape of augmentation charge: PSQ
     Using radial grid of 1191 points,  6 beta functions with: 
                l(1) =   0
                l(2) =   0
                l(3) =   1
                l(4) =   1
                l(5) =   2
                l(6) =   2
     Q(r) pseudized with 0 coefficients 


     atomic species   valence    mass     pseudopotential
        Mn            15.00    54.93800     Mn( 1.00)
        Fe            16.00    55.84500     Fe( 1.00)

     Starting magnetic structure 
     atomic species   magnetization
        Mn           0.000
        Fe          -0.000

     No symmetry found



   Cartesian axes

     site n.     atom                  positions (alat units)
         1           Mn  tau(   1) = (   0.6227389   0.6227434   0.6227432  )
         2           Fe  tau(   2) = (  -0.0000003   0.0000001  -0.0000007  )

     number of k points=   504  Gaussian smearing, width (Ry)=  0.0100

     Number of k-points >= 100: set verbosity='high' to print them.

     Dense  grid:    95097 G-vectors     FFT dimensions: (  64,  64,  64)

     Smooth grid:    18197 G-vectors     FFT dimensions: (  40,  40,  40)

     Estimated max dynamical RAM per process >     102.54 MB

     Estimated total dynamical RAM >       1.20 GB

     Check: negative core charge=   -0.000015
     Generating pointlists ...

     Initial potential from superposition of free atoms

     starting charge   30.49948, renormalised to   31.00000
     Starting wfcs are   26 randomized atomic wfcs
     Checking if some PAW data can be deallocated... 

     total cpu time spent up to now is     1715.1 secs

     Self-consistent Calculation

     iteration #  1     ecut=    90.00 Ry     beta= 0.20
     Davidson diagonalization with overlap
     c_bands:  1 eigenvalues not converged
     c_bands:  1 eigenvalues not converged
     c_bands:  1 eigenvalues not converged
     c_bands:  1 eigenvalues not converged
     c_bands:  1 eigenvalues not converged
     c_bands:  1 eigenvalues not converged
     c_bands:  1 eigenvalues not converged
     c_bands:  1 eigenvalues not converged
     c_bands:  1 eigenvalues not converged
     c_bands:  1 eigenvalues not converged
     c_bands:  1 eigenvalues not converged
     c_bands:  1 eigenvalues not converged
     c_bands:  1 eigenvalues not converged
     c_bands:  1 eigenvalues not converged
     c_bands:  1 eigenvalues not converged
     c_bands:  1 eigenvalues not converged
     c_bands:  1 eigenvalues not converged
     c_bands:  1 eigenvalues not converged
     c_bands:  1 eigenvalues not converged
     c_bands:  1 eigenvalues not converged
     c_bands:  1 eigenvalues not converged
     c_bands:  1 eigenvalues not converged
     c_bands:  1 eigenvalues not converged
     c_bands:  1 eigenvalues not converged
     c_bands:  1 eigenvalues not converged
     c_bands:  1 eigenvalues not converged
     c_bands:  1 eigenvalues not converged
     c_bands:  1 eigenvalues not converged
     c_bands:  1 eigenvalues not converged
     c_bands:  1 eigenvalues not converged
     c_bands:  1 eigenvalues not converged
     c_bands:  1 eigenvalues not converged
     c_bands:  1 eigenvalues not converged
     c_bands:  1 eigenvalues not converged
     c_bands:  1 eigenvalues not converged
     c_bands:  1 eigenvalues not converged
     c_bands:  1 eigenvalues not converged
     c_bands:  1 eigenvalues not converged
     c_bands:  1 eigenvalues not converged
     c_bands:  1 eigenvalues not converged
     c_bands:  1 eigenvalues not converged
     c_bands:  1 eigenvalues not converged
     c_bands:  1 eigenvalues not converged
     c_bands:  1 eigenvalues not converged
     c_bands:  1 eigenvalues not converged
     c_bands:  1 eigenvalues not converged
     c_bands:  1 eigenvalues not converged
     c_bands:  1 eigenvalues not converged
     c_bands:  1 eigenvalues not converged
     ethr =  1.00E-06,  avg # of iterations = 14.6

     total cpu time spent up to now is     1777.3 secs

     total energy              =    -540.16133192 Ry
     estimated scf accuracy    <       1.16296095 Ry

     total magnetization       =    -0.00 Bohr mag/cell
     absolute magnetization    =     0.00 Bohr mag/cell

     iteration #  2     ecut=    90.00 Ry     beta= 0.20
     Davidson diagonalization with overlap
     ethr =  3.75E-03,  avg # of iterations =  2.2

     total cpu time spent up to now is     1790.2 secs

     total energy              =    -540.05080941 Ry
     estimated scf accuracy    <       5.17344662 Ry

     total magnetization       =    -0.00 Bohr mag/cell
     absolute magnetization    =     0.00 Bohr mag/cell

     iteration #  3     ecut=    90.00 Ry     beta= 0.20
     Davidson diagonalization with overlap
     ethr =  3.75E-03,  avg # of iterations =  1.3

     total cpu time spent up to now is     1801.5 secs

     total energy              =    -540.30215999 Ry
     estimated scf accuracy    <       0.44947168 Ry

     total magnetization       =    -0.00 Bohr mag/cell
     absolute magnetization    =     0.00 Bohr mag/cell

     iteration #  4     ecut=    90.00 Ry     beta= 0.20
     Davidson diagonalization with overlap
     ethr =  1.45E-03,  avg # of iterations =  1.0

     total cpu time spent up to now is     1812.5 secs

     total energy              =    -540.32849876 Ry
     estimated scf accuracy    <       0.00390534 Ry

     total magnetization       =    -0.00 Bohr mag/cell
     absolute magnetization    =     0.00 Bohr mag/cell

     iteration #  5     ecut=    90.00 Ry     beta= 0.20
     Davidson diagonalization with overlap
     ethr =  1.26E-05,  avg # of iterations =  5.1

     total cpu time spent up to now is     1830.7 secs

     total energy              =    -540.33147331 Ry
     estimated scf accuracy    <       0.00568420 Ry

     total magnetization       =    -0.00 Bohr mag/cell
     absolute magnetization    =     0.00 Bohr mag/cell

     iteration #  6     ecut=    90.00 Ry     beta= 0.20
     Davidson diagonalization with overlap
     ethr =  1.26E-05,  avg # of iterations =  1.2

     total cpu time spent up to now is     1841.8 secs

     total energy              =    -540.33186270 Ry
     estimated scf accuracy    <       0.00050853 Ry

     total magnetization       =     0.00 Bohr mag/cell
     absolute magnetization    =     0.00 Bohr mag/cell

     iteration #  7     ecut=    90.00 Ry     beta= 0.20
     Davidson diagonalization with overlap
     ethr =  1.64E-06,  avg # of iterations =  2.3

     total cpu time spent up to now is     1855.5 secs

     total energy              =    -540.33196982 Ry
     estimated scf accuracy    <       0.00040792 Ry

     total magnetization       =     0.00 Bohr mag/cell
     absolute magnetization    =     0.00 Bohr mag/cell

     iteration #  8     ecut=    90.00 Ry     beta= 0.20
     Davidson diagonalization with overlap
     ethr =  1.32E-06,  avg # of iterations =  1.0

     total cpu time spent up to now is     1866.5 secs

     total energy              =    -540.33196550 Ry
     estimated scf accuracy    <       0.00025541 Ry

     total magnetization       =     0.00 Bohr mag/cell
     absolute magnetization    =     0.00 Bohr mag/cell

     iteration #  9     ecut=    90.00 Ry     beta= 0.20
     Davidson diagonalization with overlap
     ethr =  8.24E-07,  avg # of iterations =  1.0

     total cpu time spent up to now is     1877.4 secs

     total energy              =    -540.33198493 Ry
     estimated scf accuracy    <       0.00008271 Ry

     total magnetization       =     0.00 Bohr mag/cell
     absolute magnetization    =     0.00 Bohr mag/cell

     iteration # 10     ecut=    90.00 Ry     beta= 0.20
     Davidson diagonalization with overlap
     ethr =  2.67E-07,  avg # of iterations =  1.7

     total cpu time spent up to now is     1889.2 secs

     total energy              =    -540.33197989 Ry
     estimated scf accuracy    <       0.00000292 Ry

     total magnetization       =     0.00 Bohr mag/cell
     absolute magnetization    =     0.00 Bohr mag/cell

     iteration # 11     ecut=    90.00 Ry     beta= 0.20
     Davidson diagonalization with overlap
     ethr =  9.40E-09,  avg # of iterations =  4.9

     total cpu time spent up to now is     1906.2 secs

     total energy              =    -540.33198315 Ry
     estimated scf accuracy    <       0.00000014 Ry

     total magnetization       =     0.00 Bohr mag/cell
     absolute magnetization    =     0.00 Bohr mag/cell

     iteration # 12     ecut=    90.00 Ry     beta= 0.20
     Davidson diagonalization with overlap
     ethr =  4.42E-10,  avg # of iterations =  4.0

     total cpu time spent up to now is     1922.1 secs

     total energy              =    -540.33198174 Ry
     estimated scf accuracy    <       0.00000032 Ry

     total magnetization       =     0.00 Bohr mag/cell
     absolute magnetization    =     0.00 Bohr mag/cell

     iteration # 13     ecut=    90.00 Ry     beta= 0.20
     Davidson diagonalization with overlap
     ethr =  4.42E-10,  avg # of iterations =  2.3

     total cpu time spent up to now is     1936.5 secs

     total energy              =    -540.33198217 Ry
     estimated scf accuracy    <       0.00000002 Ry

     total magnetization       =     0.00 Bohr mag/cell
     absolute magnetization    =     0.00 Bohr mag/cell

     iteration # 14     ecut=    90.00 Ry     beta= 0.20
     Davidson diagonalization with overlap
     ethr =  7.28E-11,  avg # of iterations =  1.5

     total cpu time spent up to now is     1948.0 secs

     total energy              =    -540.33198265 Ry
     estimated scf accuracy    <       0.00000001 Ry

     total magnetization       =     0.00 Bohr mag/cell
     absolute magnetization    =     0.00 Bohr mag/cell

     iteration # 15     ecut=    90.00 Ry     beta= 0.20
     Davidson diagonalization with overlap
     ethr =  4.43E-11,  avg # of iterations =  2.2

     total cpu time spent up to now is     1961.7 secs

     total energy              =    -540.33198287 Ry
     estimated scf accuracy    <       0.00000010 Ry

     total magnetization       =     0.00 Bohr mag/cell
     absolute magnetization    =     0.00 Bohr mag/cell

     iteration # 16     ecut=    90.00 Ry     beta= 0.20
     Davidson diagonalization with overlap
     ethr =  4.43E-11,  avg # of iterations =  1.4

     total cpu time spent up to now is     1973.4 secs

     total energy              =    -540.33198277 Ry
     estimated scf accuracy    <          6.7E-09 Ry

     total magnetization       =    -0.00 Bohr mag/cell
     absolute magnetization    =     0.00 Bohr mag/cell

     iteration # 17     ecut=    90.00 Ry     beta= 0.20
     Davidson diagonalization with overlap
     ethr =  2.15E-11,  avg # of iterations =  2.8

     total cpu time spent up to now is     1988.1 secs

     total energy              =    -540.33198225 Ry
     estimated scf accuracy    <       0.00000001 Ry

     total magnetization       =    -0.00 Bohr mag/cell
     absolute magnetization    =     0.00 Bohr mag/cell

     iteration # 18     ecut=    90.00 Ry     beta= 0.20
     Davidson diagonalization with overlap
     ethr =  2.15E-11,  avg # of iterations =  3.2

     total cpu time spent up to now is     2003.9 secs

     total energy              =    -540.33198220 Ry
     estimated scf accuracy    <       0.00000001 Ry

     total magnetization       =    -0.00 Bohr mag/cell
     absolute magnetization    =     0.00 Bohr mag/cell

     iteration # 19     ecut=    90.00 Ry     beta= 0.20
     Davidson diagonalization with overlap
     ethr =  2.15E-11,  avg # of iterations =  2.0

     total cpu time spent up to now is     2017.2 secs

     total energy              =    -540.33198220 Ry
     estimated scf accuracy    <          2.0E-10 Ry

     total magnetization       =    -0.00 Bohr mag/cell
     absolute magnetization    =     0.00 Bohr mag/cell

     iteration # 20     ecut=    90.00 Ry     beta= 0.20
     Davidson diagonalization with overlap
     ethr =  6.54E-13,  avg # of iterations =  2.8

     Magnetic moment per site:
     atom:    1    charge:   11.6624    magn:   -0.0000    constr:    0.0000
     atom:    2    charge:   12.8249    magn:   -0.0002    constr:    0.0000

     total cpu time spent up to now is     2030.4 secs

     End of self-consistent calculation

     Number of k-points >= 100: set verbosity='high' to print the bands.

     the Fermi energy is    18.0862 ev

!    total energy              =    -540.33198226 Ry
     estimated scf accuracy    <          8.4E-11 Ry
     smearing contrib. (-TS)   =      -0.00296495 Ry
     internal energy E=F+TS    =    -540.32901731 Ry

     The total energy is F=E-TS. E is the sum of the following terms:
     one-electron contribution =    -208.45455345 Ry
     hartree contribution      =     122.82254561 Ry
     xc contribution           =     -61.28599646 Ry
     ewald contribution        =    -317.25904242 Ry
     one-center paw contrib.   =     -76.15197058 Ry

     total magnetization       =    -0.00 Bohr mag/cell
     absolute magnetization    =     0.00 Bohr mag/cell

     convergence has been achieved in  20 iterations

     Forces acting on atoms (cartesian axes, Ry/au):

     atom    1 type  1   force =     0.00000063   -0.00000030    0.00000073
     atom    2 type  2   force =    -0.00000063    0.00000030   -0.00000073

     Total force =     0.000001     Total SCF correction =     0.000001
     SCF correction compared to forces is large: reduce conv_thr to get better values


     Computing stress (Cartesian axis) and pressure

          total   stress  (Ry/bohr**3)                   (kbar)     P=        1.97
   0.00001337  -0.00000000   0.00000001            1.97       -0.00        0.00
  -0.00000000   0.00001337  -0.00000001           -0.00        1.97       -0.00
   0.00000001  -0.00000001   0.00001339            0.00       -0.00        1.97


     init_run     :     10.38s CPU     10.78s WALL (       2 calls)
     electrons    :   1917.87s CPU   1993.58s WALL (       7 calls)
     update_pot   :      2.98s CPU      3.02s WALL (       5 calls)
     forces       :      7.59s CPU      7.73s WALL (       7 calls)
     stress       :     17.23s CPU     17.34s WALL (       7 calls)

     Called by init_run:
     wfcinit      :      8.40s CPU      8.72s WALL (       2 calls)
     potinit      :      0.66s CPU      0.67s WALL (       2 calls)
     hinit0       :      1.15s CPU      1.19s WALL (       2 calls)

     Called by electrons:
     c_bands      :   1636.62s CPU   1701.04s WALL (     203 calls)
     sum_band     :    238.00s CPU    248.75s WALL (     203 calls)
     v_of_rho     :      6.16s CPU      6.42s WALL (     210 calls)
     newd         :     11.93s CPU     12.05s WALL (     210 calls)
     PAW_pot      :     26.12s CPU     26.19s WALL (     215 calls)
     mix_rho      :      0.44s CPU      0.50s WALL (     203 calls)

     Called by c_bands:
     init_us_2    :     19.74s CPU     20.66s WALL (  430416 calls)
     cegterg      :   1584.40s CPU   1647.37s WALL (  205623 calls)

     Called by *egterg:
     cdiaghg      :    269.78s CPU    277.92s WALL (  732290 calls)
     h_psi        :   1011.32s CPU   1055.81s WALL (  740345 calls)
     s_psi        :     51.38s CPU     53.87s WALL (  740345 calls)
     g_psi        :      3.86s CPU      3.97s WALL (  532706 calls)

     Called by h_psi:
     h_psi:calbec :     70.13s CPU     73.87s WALL (  740345 calls)
     vloc_psi     :    886.08s CPU    924.14s WALL (  740345 calls)
     add_vuspsi   :     51.46s CPU     54.14s WALL (  740345 calls)

     General routines
     calbec       :     98.13s CPU    103.29s WALL (  985289 calls)
     fft          :      2.58s CPU      2.90s WALL (    5521 calls)
     ffts         :      0.05s CPU      0.06s WALL (     826 calls)
     fftw         :    974.39s CPU   1017.49s WALL (25776190 calls)
     interpolate  :      0.25s CPU      0.29s WALL (     420 calls)

     Parallel routines
     fft_scatt_xy :    115.77s CPU    120.52s WALL (25782537 calls)
     fft_scatt_yz :    345.51s CPU    361.89s WALL (25782537 calls)

     PWSCF        :  32m38.88s CPU  33m56.32s WALL


   This run was terminated on:  19:54:57   8Dec2021            

=------------------------------------------------------------------------------=
   JOB DONE.
=------------------------------------------------------------------------------=
Note: The following floating-point exceptions are signalling: IEEE_UNDERFLOW_FLAG IEEE_DENORMAL
Note: The following floating-point exceptions are signalling: IEEE_UNDERFLOW_FLAG IEEE_DENORMAL
Note: The following floating-point exceptions are signalling: IEEE_UNDERFLOW_FLAG IEEE_DENORMAL
Note: The following floating-point exceptions are signalling: IEEE_UNDERFLOW_FLAG IEEE_DENORMAL
Note: The following floating-point exceptions are signalling: IEEE_UNDERFLOW_FLAG IEEE_DENORMAL
Note: The following floating-point exceptions are signalling: IEEE_UNDERFLOW_FLAG IEEE_DENORMAL
Note: The following floating-point exceptions are signalling: IEEE_UNDERFLOW_FLAG IEEE_DENORMAL
Note: The following floating-point exceptions are signalling: IEEE_UNDERFLOW_FLAG IEEE_DENORMAL
Note: The following floating-point exceptions are signalling: IEEE_UNDERFLOW_FLAG IEEE_DENORMAL
Note: The following floating-point exceptions are signalling: IEEE_UNDERFLOW_FLAG IEEE_DENORMAL
Note: The following floating-point exceptions are signalling: IEEE_UNDERFLOW_FLAG IEEE_DENORMAL
Note: The following floating-point exceptions are signalling: IEEE_UNDERFLOW_FLAG IEEE_DENORMAL
