
     Program PWSCF v.6.7MaX starts on  8Dec2021 at 18:49:48 

     This program is part of the open-source Quantum ESPRESSO suite
     for quantum simulation of materials; please cite
         "P. Giannozzi et al., J. Phys.:Condens. Matter 21 395502 (2009);
         "P. Giannozzi et al., J. Phys.:Condens. Matter 29 465901 (2017);
          URL http://www.quantum-espresso.org", 
     in publications or presentations arising from this work. More details at
     http://www.quantum-espresso.org/quote

     Parallel version (MPI), running on    12 processors

     MPI processes distributed on     1 nodes
     R & G space division:  proc/nbgrp/npool/nimage =      12
     Reading input from Opt-B1-CoNi.in

     Current dimensions of program PWSCF are:
     Max number of different atomic species (ntypx) = 10
     Max number of k-points (npk) =  40000
     Max angular momentum in pseudopotentials (lmaxx) =  3

     Subspace diagonalization in iterative solution of the eigenvalue problem:
     a serial algorithm will be used


     Parallelization info
     --------------------
     sticks:   dense  smooth     PW     G-vecs:    dense   smooth      PW
     Min         137      46     15                 3696      717     135
     Max         138      47     16                 3699      719     137
     Sum        1651     559    187                44375     8609    1639



     bravais-lattice index     =            2
     lattice parameter (alat)  =       6.6650  a.u.
     unit-cell volume          =      74.0174 (a.u.)^3
     number of atoms/cell      =            2
     number of atomic types    =            2
     number of electrons       =        35.00
     number of Kohn-Sham states=           22
     kinetic-energy cutoff     =      90.0000  Ry
     charge density cutoff     =    1080.0000  Ry
     scf convergence threshold =      1.0E-08
     mixing beta               =       0.2000
     number of iterations used =            8  plain     mixing
     energy convergence thresh.=      1.0E-05
     force convergence thresh. =      1.0E-04
     press convergence thresh. =      1.0E-01
     Exchange-correlation= SLA  PW   PBE  PBE
                           (   1   4   3   4   0   0   0)
     nstep                     =          100


     celldm(1)=   6.664966  celldm(2)=   0.000000  celldm(3)=   0.000000
     celldm(4)=   0.000000  celldm(5)=   0.000000  celldm(6)=   0.000000

     crystal axes: (cart. coord. in units of alat)
               a(1) = (  -0.500000   0.000000   0.500000 )  
               a(2) = (   0.000000   0.500000   0.500000 )  
               a(3) = (  -0.500000   0.500000   0.000000 )  

     reciprocal axes: (cart. coord. in units 2 pi/alat)
               b(1) = ( -1.000000 -1.000000  1.000000 )  
               b(2) = (  1.000000  1.000000  1.000000 )  
               b(3) = ( -1.000000  1.000000 -1.000000 )  


     PseudoPot. # 1 for Ni read from file:
     /opt/QEpot/SSSP_efficiency_pseudos/ni_pbe_v1.4.uspp.F.UPF
     MD5 check sum: 1ee80287db30b12d2bc1f57a5b5d6409
     Pseudo is Ultrasoft + core correction, Zval = 18.0
     Generated by new atomic code, or converted to UPF format
     Using radial grid of  865 points,  6 beta functions with: 
                l(1) =   0
                l(2) =   0
                l(3) =   1
                l(4) =   1
                l(5) =   2
                l(6) =   2
     Q(r) pseudized with 10 coefficients,  rinner =    0.980   0.980   0.980
                                                       0.980   0.980

     PseudoPot. # 2 for Co read from file:
     /opt/QEpot/SSSP_efficiency_pseudos/Co_pbe_v1.2.uspp.F.UPF
     MD5 check sum: 5f91765df6ddd3222702df6e7b74a16d
     Pseudo is Ultrasoft + core correction, Zval = 17.0
     Generated by new atomic code, or converted to UPF format
     Using radial grid of  863 points,  6 beta functions with: 
                l(1) =   0
                l(2) =   0
                l(3) =   1
                l(4) =   1
                l(5) =   2
                l(6) =   2
     Q(r) pseudized with  8 coefficients,  rinner =    1.200   1.200   1.200
                                                       1.200   1.200

     atomic species   valence    mass     pseudopotential
        Ni            18.00    58.69300     Ni( 1.00)
        Co            17.00    58.93300     Co( 1.00)

     Starting magnetic structure 
     atomic species   magnetization
        Ni           0.200
        Co           0.200

     No symmetry found



   Cartesian axes

     site n.     atom                  positions (alat units)
         1           Ni  tau(   1) = (   0.5000000   0.5000000   0.5000000  )
         2           Co  tau(   2) = (   0.0000000   0.0000000   0.0000000  )

     number of k points=   504  Gaussian smearing, width (Ry)=  0.0100

     Number of k-points >= 100: set verbosity='high' to print them.

     Dense  grid:    44375 G-vectors     FFT dimensions: (  50,  50,  50)

     Smooth grid:     8609 G-vectors     FFT dimensions: (  30,  30,  30)

     Estimated max dynamical RAM per process >      55.92 MB

     Estimated total dynamical RAM >     671.03 MB

     Check: negative core charge=   -0.000018
     Generating pointlists ...
     new r_m :   0.2063 (alat units)  1.3746 (a.u.) for type    1
     new r_m :   0.2063 (alat units)  1.3746 (a.u.) for type    2

     Initial potential from superposition of free atoms

     starting charge   31.99999, renormalised to   35.00000
     Starting wfcs are   26 randomized atomic wfcs

     total cpu time spent up to now is        7.9 secs

     Self-consistent Calculation

     iteration #  1     ecut=    90.00 Ry     beta= 0.20
     Davidson diagonalization with overlap
     ethr =  1.00E-02,  avg # of iterations =  3.0

     total cpu time spent up to now is       19.1 secs

     total energy              =    -639.82619183 Ry
     estimated scf accuracy    <      14.62431020 Ry

     total magnetization       =     2.31 Bohr mag/cell
     absolute magnetization    =     2.32 Bohr mag/cell

     iteration #  2     ecut=    90.00 Ry     beta= 0.20
     Davidson diagonalization with overlap
     ethr =  1.00E-02,  avg # of iterations =  2.0

     total cpu time spent up to now is       28.6 secs

     total energy              =    -639.88593528 Ry
     estimated scf accuracy    <       3.07288870 Ry

     total magnetization       =     2.29 Bohr mag/cell
     absolute magnetization    =     2.32 Bohr mag/cell

     iteration #  3     ecut=    90.00 Ry     beta= 0.20
     Davidson diagonalization with overlap
     ethr =  8.78E-03,  avg # of iterations =  2.0

     total cpu time spent up to now is       37.2 secs

     total energy              =    -640.22935554 Ry
     estimated scf accuracy    <       0.52170457 Ry

     total magnetization       =     2.11 Bohr mag/cell
     absolute magnetization    =     2.15 Bohr mag/cell

     iteration #  4     ecut=    90.00 Ry     beta= 0.20
     Davidson diagonalization with overlap
     ethr =  1.49E-03,  avg # of iterations =  2.0

     total cpu time spent up to now is       45.3 secs

     total energy              =    -640.33328207 Ry
     estimated scf accuracy    <       0.14611209 Ry

     total magnetization       =     1.80 Bohr mag/cell
     absolute magnetization    =     1.86 Bohr mag/cell

     iteration #  5     ecut=    90.00 Ry     beta= 0.20
     Davidson diagonalization with overlap
     ethr =  4.17E-04,  avg # of iterations =  2.1

     total cpu time spent up to now is       55.1 secs

     total energy              =    -640.34494654 Ry
     estimated scf accuracy    <       0.17735425 Ry

     total magnetization       =     0.51 Bohr mag/cell
     absolute magnetization    =     0.57 Bohr mag/cell

     iteration #  6     ecut=    90.00 Ry     beta= 0.20
     Davidson diagonalization with overlap
     ethr =  4.17E-04,  avg # of iterations =  2.0

     total cpu time spent up to now is       64.1 secs

     total energy              =    -640.38102952 Ry
     estimated scf accuracy    <       0.00745078 Ry

     total magnetization       =     0.57 Bohr mag/cell
     absolute magnetization    =     0.63 Bohr mag/cell

     iteration #  7     ecut=    90.00 Ry     beta= 0.20
     Davidson diagonalization with overlap
     ethr =  2.13E-05,  avg # of iterations =  2.2

     total cpu time spent up to now is       72.3 secs

     total energy              =    -640.38443136 Ry
     estimated scf accuracy    <       0.00102507 Ry

     total magnetization       =     0.22 Bohr mag/cell
     absolute magnetization    =     0.24 Bohr mag/cell

     iteration #  8     ecut=    90.00 Ry     beta= 0.20
     Davidson diagonalization with overlap
     ethr =  2.93E-06,  avg # of iterations =  1.7

     total cpu time spent up to now is       80.6 secs

     total energy              =    -640.38481106 Ry
     estimated scf accuracy    <       0.00025188 Ry

     total magnetization       =     0.13 Bohr mag/cell
     absolute magnetization    =     0.14 Bohr mag/cell

     iteration #  9     ecut=    90.00 Ry     beta= 0.20
     Davidson diagonalization with overlap
     ethr =  7.20E-07,  avg # of iterations =  2.1

     total cpu time spent up to now is       89.2 secs

     total energy              =    -640.38485829 Ry
     estimated scf accuracy    <       0.00005464 Ry

     total magnetization       =     0.08 Bohr mag/cell
     absolute magnetization    =     0.09 Bohr mag/cell

     iteration # 10     ecut=    90.00 Ry     beta= 0.20
     Davidson diagonalization with overlap
     ethr =  1.56E-07,  avg # of iterations =  1.9

     total cpu time spent up to now is       98.0 secs

     total energy              =    -640.38490908 Ry
     estimated scf accuracy    <       0.00004750 Ry

     total magnetization       =     0.02 Bohr mag/cell
     absolute magnetization    =     0.02 Bohr mag/cell

     iteration # 11     ecut=    90.00 Ry     beta= 0.20
     Davidson diagonalization with overlap
     ethr =  1.36E-07,  avg # of iterations =  1.9

     total cpu time spent up to now is      106.5 secs

     total energy              =    -640.38491186 Ry
     estimated scf accuracy    <       0.00000637 Ry

     total magnetization       =     0.00 Bohr mag/cell
     absolute magnetization    =     0.00 Bohr mag/cell

     iteration # 12     ecut=    90.00 Ry     beta= 0.20
     Davidson diagonalization with overlap
     ethr =  1.82E-08,  avg # of iterations =  1.9

     total cpu time spent up to now is      115.3 secs

     total energy              =    -640.38491718 Ry
     estimated scf accuracy    <       0.00000142 Ry

     total magnetization       =    -0.02 Bohr mag/cell
     absolute magnetization    =     0.02 Bohr mag/cell

     iteration # 13     ecut=    90.00 Ry     beta= 0.20
     Davidson diagonalization with overlap
     ethr =  4.07E-09,  avg # of iterations =  2.0

     total cpu time spent up to now is      124.8 secs

     total energy              =    -640.38492431 Ry
     estimated scf accuracy    <       0.00000008 Ry

     total magnetization       =    -0.00 Bohr mag/cell
     absolute magnetization    =     0.00 Bohr mag/cell

     iteration # 14     ecut=    90.00 Ry     beta= 0.20
     Davidson diagonalization with overlap
     ethr =  2.26E-10,  avg # of iterations =  2.0

     total cpu time spent up to now is      134.4 secs

     total energy              =    -640.38492424 Ry
     estimated scf accuracy    <       0.00000019 Ry

     total magnetization       =    -0.01 Bohr mag/cell
     absolute magnetization    =     0.01 Bohr mag/cell

     iteration # 15     ecut=    90.00 Ry     beta= 0.20
     Davidson diagonalization with overlap
     ethr =  2.26E-10,  avg # of iterations =  2.5

     Magnetic moment per site:
     atom:    1    charge:   15.3744    magn:   -0.0002    constr:    0.0000
     atom:    2    charge:   14.3120    magn:   -0.0002    constr:    0.0000

     total cpu time spent up to now is      145.0 secs

     End of self-consistent calculation

     Number of k-points >= 100: set verbosity='high' to print the bands.

     the Fermi energy is    40.8450 ev

!    total energy              =    -640.38492519 Ry
     estimated scf accuracy    <          7.2E-10 Ry
     smearing contrib. (-TS)   =      -0.00177774 Ry
     internal energy E=F+TS    =    -640.38314745 Ry

     The total energy is F=E-TS. E is the sum of the following terms:
     one-electron contribution =    -195.43697754 Ry
     hartree contribution      =     147.09244627 Ry
     xc contribution           =     -70.28997900 Ry
     ewald contribution        =    -521.74863717 Ry

     total magnetization       =    -0.00 Bohr mag/cell
     absolute magnetization    =     0.00 Bohr mag/cell

     convergence has been achieved in  15 iterations

     Forces acting on atoms (cartesian axes, Ry/au):

     atom    1 type  1   force =     0.00000014    0.00000051   -0.00000040
     atom    2 type  2   force =    -0.00000014   -0.00000051    0.00000040

     Total force =     0.000001     Total SCF correction =     0.000002
     SCF correction compared to forces is large: reduce conv_thr to get better values


     Computing stress (Cartesian axis) and pressure

          total   stress  (Ry/bohr**3)                   (kbar)     P=     8373.29
   0.05692046  -0.00000000  -0.00000000         8373.29       -0.00       -0.00
  -0.00000000   0.05692047   0.00000000           -0.00     8373.29        0.00
  -0.00000000   0.00000000   0.05692047           -0.00        0.00     8373.29


     BFGS Geometry Optimization
     Energy error            =      0.0E+00
     Gradient error          =      5.1E-07
     Cell gradient error     =      5.7E-02


     number of scf cycles    =   1
     number of bfgs steps    =   0

     enthalpy new            =    -640.3849251891 Ry

     new trust radius        =       0.5000000000 bohr
     new conv_thr            =       0.0000000100 Ry

     new unit-cell volume =    159.10858 a.u.^3 (    23.57746 Ang^3 )
     density =      8.28429 g/cm^3

CELL_PARAMETERS (alat=  6.66496610)
  -0.645292447   0.000000003   0.645292466
  -0.000000002   0.645292468   0.645292467
  -0.645292449   0.645292468   0.000000002

ATOMIC_POSITIONS (alat)
Ni            0.6452924511        0.6452924866        0.6452924508
Co           -0.0000000056       -0.0000000201        0.0000000158



     Writing output data file ./pwscf.save/
     NEW-OLD atomic charge density approx. for the potential

     Check: negative core charge=   -0.000037
     extrapolated charge   52.11358, renormalised to   35.00000
     Generating pointlists ...

     total cpu time spent up to now is      148.7 secs

     Self-consistent Calculation

     iteration #  1     ecut=    90.00 Ry     beta= 0.20
     Davidson diagonalization with overlap
     c_bands:  1 eigenvalues not converged
     c_bands:  1 eigenvalues not converged
     c_bands:  1 eigenvalues not converged
     c_bands:  1 eigenvalues not converged
     c_bands:  1 eigenvalues not converged
     c_bands:  1 eigenvalues not converged
     c_bands:  1 eigenvalues not converged
     c_bands:  2 eigenvalues not converged
     c_bands:  1 eigenvalues not converged
     c_bands:  1 eigenvalues not converged
     c_bands:  1 eigenvalues not converged
     c_bands:  1 eigenvalues not converged
     c_bands:  1 eigenvalues not converged
     c_bands:  1 eigenvalues not converged
     c_bands:  2 eigenvalues not converged
     c_bands:  1 eigenvalues not converged
     c_bands:  2 eigenvalues not converged
     c_bands:  1 eigenvalues not converged
     c_bands:  1 eigenvalues not converged
     c_bands:  1 eigenvalues not converged
     c_bands:  1 eigenvalues not converged
     c_bands:  1 eigenvalues not converged
     c_bands:  1 eigenvalues not converged
     c_bands:  1 eigenvalues not converged
     c_bands:  1 eigenvalues not converged
     c_bands:  1 eigenvalues not converged
     c_bands:  1 eigenvalues not converged
     c_bands:  1 eigenvalues not converged
     c_bands:  1 eigenvalues not converged
     c_bands:  2 eigenvalues not converged
     c_bands:  1 eigenvalues not converged
     c_bands:  1 eigenvalues not converged
     c_bands:  1 eigenvalues not converged
     c_bands:  2 eigenvalues not converged
     c_bands:  2 eigenvalues not converged
     c_bands:  1 eigenvalues not converged
     c_bands:  1 eigenvalues not converged
     c_bands:  2 eigenvalues not converged
     c_bands:  1 eigenvalues not converged
     c_bands:  1 eigenvalues not converged
     c_bands:  1 eigenvalues not converged
     c_bands:  1 eigenvalues not converged
     c_bands:  1 eigenvalues not converged
     c_bands:  2 eigenvalues not converged
     c_bands:  1 eigenvalues not converged
     c_bands:  1 eigenvalues not converged
     c_bands:  1 eigenvalues not converged
     c_bands:  1 eigenvalues not converged
     c_bands:  1 eigenvalues not converged
     c_bands:  1 eigenvalues not converged
     c_bands:  1 eigenvalues not converged
     c_bands:  2 eigenvalues not converged
     c_bands:  1 eigenvalues not converged
     c_bands:  1 eigenvalues not converged
     c_bands:  1 eigenvalues not converged
     c_bands:  1 eigenvalues not converged
     c_bands:  1 eigenvalues not converged
     c_bands:  2 eigenvalues not converged
     c_bands:  1 eigenvalues not converged
     c_bands:  1 eigenvalues not converged
     c_bands:  1 eigenvalues not converged
     c_bands:  1 eigenvalues not converged
     c_bands:  2 eigenvalues not converged
     c_bands:  1 eigenvalues not converged
     c_bands:  1 eigenvalues not converged
     c_bands:  1 eigenvalues not converged
     c_bands:  1 eigenvalues not converged
     c_bands:  1 eigenvalues not converged
     c_bands:  2 eigenvalues not converged
     c_bands:  2 eigenvalues not converged
     c_bands:  2 eigenvalues not converged
     c_bands:  1 eigenvalues not converged
     c_bands:  2 eigenvalues not converged
     c_bands:  1 eigenvalues not converged
     c_bands:  2 eigenvalues not converged
     c_bands:  1 eigenvalues not converged
     c_bands:  2 eigenvalues not converged
     c_bands:  1 eigenvalues not converged
     c_bands:  1 eigenvalues not converged
     c_bands:  1 eigenvalues not converged
     c_bands:  2 eigenvalues not converged
     c_bands:  2 eigenvalues not converged
     c_bands:  1 eigenvalues not converged
     c_bands:  1 eigenvalues not converged
     c_bands:  2 eigenvalues not converged
     c_bands:  2 eigenvalues not converged
     c_bands:  1 eigenvalues not converged
     c_bands:  1 eigenvalues not converged
     c_bands:  1 eigenvalues not converged
     c_bands:  1 eigenvalues not converged
     c_bands:  1 eigenvalues not converged
     c_bands:  1 eigenvalues not converged
     c_bands:  1 eigenvalues not converged
     c_bands:  2 eigenvalues not converged
     c_bands:  1 eigenvalues not converged
     c_bands:  1 eigenvalues not converged
     c_bands:  1 eigenvalues not converged
     c_bands:  1 eigenvalues not converged
     c_bands:  1 eigenvalues not converged
     c_bands:  2 eigenvalues not converged
     c_bands:  1 eigenvalues not converged
     c_bands:  1 eigenvalues not converged
     c_bands:  1 eigenvalues not converged
     c_bands:  2 eigenvalues not converged
     c_bands:  1 eigenvalues not converged
     c_bands:  1 eigenvalues not converged
     c_bands:  2 eigenvalues not converged
     c_bands:  1 eigenvalues not converged
     c_bands:  2 eigenvalues not converged
     c_bands:  1 eigenvalues not converged
     c_bands:  1 eigenvalues not converged
     c_bands:  2 eigenvalues not converged
     c_bands:  1 eigenvalues not converged
     c_bands:  2 eigenvalues not converged
     c_bands:  1 eigenvalues not converged
     c_bands:  1 eigenvalues not converged
     c_bands:  1 eigenvalues not converged
     c_bands:  1 eigenvalues not converged
     c_bands:  2 eigenvalues not converged
     c_bands:  1 eigenvalues not converged
     c_bands:  1 eigenvalues not converged
     c_bands:  1 eigenvalues not converged
     c_bands:  1 eigenvalues not converged
     c_bands:  1 eigenvalues not converged
     c_bands:  1 eigenvalues not converged
     c_bands:  1 eigenvalues not converged
     c_bands:  1 eigenvalues not converged
     c_bands:  2 eigenvalues not converged
     c_bands:  2 eigenvalues not converged
     c_bands:  1 eigenvalues not converged
     c_bands:  1 eigenvalues not converged
     c_bands:  1 eigenvalues not converged
     c_bands:  1 eigenvalues not converged
     c_bands:  1 eigenvalues not converged
     c_bands:  1 eigenvalues not converged
     c_bands:  1 eigenvalues not converged
     c_bands:  1 eigenvalues not converged
     c_bands:  2 eigenvalues not converged
     c_bands:  2 eigenvalues not converged
     c_bands:  1 eigenvalues not converged
     c_bands:  2 eigenvalues not converged
     c_bands:  1 eigenvalues not converged
     c_bands:  1 eigenvalues not converged
     c_bands:  2 eigenvalues not converged
     c_bands:  1 eigenvalues not converged
     c_bands:  2 eigenvalues not converged
     c_bands:  1 eigenvalues not converged
     c_bands:  2 eigenvalues not converged
     c_bands:  1 eigenvalues not converged
     c_bands:  2 eigenvalues not converged
     c_bands:  1 eigenvalues not converged
     c_bands:  2 eigenvalues not converged
     c_bands:  1 eigenvalues not converged
     c_bands:  1 eigenvalues not converged
     c_bands:  2 eigenvalues not converged
     c_bands:  1 eigenvalues not converged
     c_bands:  1 eigenvalues not converged
     c_bands:  2 eigenvalues not converged
     c_bands:  1 eigenvalues not converged
     c_bands:  1 eigenvalues not converged
     c_bands:  1 eigenvalues not converged
     c_bands:  1 eigenvalues not converged
     c_bands:  1 eigenvalues not converged
     c_bands:  1 eigenvalues not converged
     c_bands:  2 eigenvalues not converged
     c_bands:  1 eigenvalues not converged
     c_bands:  1 eigenvalues not converged
     c_bands:  1 eigenvalues not converged
     c_bands:  1 eigenvalues not converged
     c_bands:  1 eigenvalues not converged
     c_bands:  1 eigenvalues not converged
     c_bands:  1 eigenvalues not converged
     c_bands:  2 eigenvalues not converged
     c_bands:  1 eigenvalues not converged
     c_bands:  1 eigenvalues not converged
     c_bands:  1 eigenvalues not converged
     c_bands:  1 eigenvalues not converged
     c_bands:  1 eigenvalues not converged
     c_bands:  1 eigenvalues not converged
     c_bands:  1 eigenvalues not converged
     c_bands:  1 eigenvalues not converged
     c_bands:  1 eigenvalues not converged
     c_bands:  1 eigenvalues not converged
     c_bands:  1 eigenvalues not converged
     c_bands:  1 eigenvalues not converged
     c_bands:  2 eigenvalues not converged
     c_bands:  1 eigenvalues not converged
     c_bands:  1 eigenvalues not converged
     c_bands:  1 eigenvalues not converged
     c_bands:  1 eigenvalues not converged
     c_bands:  2 eigenvalues not converged
     c_bands:  1 eigenvalues not converged
     c_bands:  1 eigenvalues not converged
     c_bands:  2 eigenvalues not converged
     c_bands:  1 eigenvalues not converged
     c_bands:  1 eigenvalues not converged
     c_bands:  1 eigenvalues not converged
     c_bands:  1 eigenvalues not converged
     c_bands:  2 eigenvalues not converged
     c_bands:  2 eigenvalues not converged
     c_bands:  1 eigenvalues not converged
     c_bands:  1 eigenvalues not converged
     c_bands:  1 eigenvalues not converged
     c_bands:  1 eigenvalues not converged
     c_bands:  1 eigenvalues not converged
     c_bands:  1 eigenvalues not converged
     c_bands:  2 eigenvalues not converged
     c_bands:  1 eigenvalues not converged
     c_bands:  1 eigenvalues not converged
     c_bands:  1 eigenvalues not converged
     c_bands:  1 eigenvalues not converged
     c_bands:  1 eigenvalues not converged
     c_bands:  2 eigenvalues not converged
     c_bands:  1 eigenvalues not converged
     c_bands:  1 eigenvalues not converged
     c_bands:  1 eigenvalues not converged
     c_bands:  1 eigenvalues not converged
     c_bands:  2 eigenvalues not converged
     c_bands:  1 eigenvalues not converged
     c_bands:  1 eigenvalues not converged
     c_bands:  1 eigenvalues not converged
     c_bands:  1 eigenvalues not converged
     c_bands:  1 eigenvalues not converged
     c_bands:  2 eigenvalues not converged
     c_bands:  2 eigenvalues not converged
     c_bands:  2 eigenvalues not converged
     c_bands:  1 eigenvalues not converged
     c_bands:  2 eigenvalues not converged
     c_bands:  1 eigenvalues not converged
     c_bands:  2 eigenvalues not converged
     c_bands:  1 eigenvalues not converged
     c_bands:  2 eigenvalues not converged
     c_bands:  1 eigenvalues not converged
     c_bands:  1 eigenvalues not converged
     c_bands:  1 eigenvalues not converged
     c_bands:  2 eigenvalues not converged
     c_bands:  2 eigenvalues not converged
     c_bands:  1 eigenvalues not converged
     c_bands:  1 eigenvalues not converged
     c_bands:  1 eigenvalues not converged
     c_bands:  2 eigenvalues not converged
     c_bands:  1 eigenvalues not converged
     c_bands:  1 eigenvalues not converged
     c_bands:  1 eigenvalues not converged
     c_bands:  1 eigenvalues not converged
     c_bands:  1 eigenvalues not converged
     c_bands:  1 eigenvalues not converged
     c_bands:  1 eigenvalues not converged
     c_bands:  2 eigenvalues not converged
     c_bands:  1 eigenvalues not converged
     c_bands:  1 eigenvalues not converged
     c_bands:  1 eigenvalues not converged
     c_bands:  1 eigenvalues not converged
     c_bands:  1 eigenvalues not converged
     c_bands:  2 eigenvalues not converged
     c_bands:  1 eigenvalues not converged
     c_bands:  1 eigenvalues not converged
     c_bands:  1 eigenvalues not converged
     c_bands:  1 eigenvalues not converged
     c_bands:  1 eigenvalues not converged
     c_bands:  2 eigenvalues not converged
     c_bands:  1 eigenvalues not converged
     c_bands:  2 eigenvalues not converged
     c_bands:  1 eigenvalues not converged
     c_bands:  1 eigenvalues not converged
     c_bands:  2 eigenvalues not converged
     c_bands:  1 eigenvalues not converged
     c_bands:  2 eigenvalues not converged
     c_bands:  1 eigenvalues not converged
     c_bands:  1 eigenvalues not converged
     c_bands:  1 eigenvalues not converged
     c_bands:  1 eigenvalues not converged
     c_bands:  1 eigenvalues not converged
     c_bands:  1 eigenvalues not converged
     c_bands:  2 eigenvalues not converged
     c_bands:  1 eigenvalues not converged
     c_bands:  1 eigenvalues not converged
     c_bands:  1 eigenvalues not converged
     c_bands:  1 eigenvalues not converged
     c_bands:  2 eigenvalues not converged
     c_bands:  2 eigenvalues not converged
     c_bands:  1 eigenvalues not converged
     c_bands:  1 eigenvalues not converged
     c_bands:  1 eigenvalues not converged
     c_bands:  1 eigenvalues not converged
     c_bands:  1 eigenvalues not converged
     c_bands:  1 eigenvalues not converged
     c_bands:  2 eigenvalues not converged
     c_bands:  2 eigenvalues not converged
     c_bands:  1 eigenvalues not converged
     c_bands:  2 eigenvalues not converged
     c_bands:  1 eigenvalues not converged
     c_bands:  2 eigenvalues not converged
     c_bands:  2 eigenvalues not converged
     c_bands:  1 eigenvalues not converged
     c_bands:  2 eigenvalues not converged
     c_bands:  1 eigenvalues not converged
     c_bands:  2 eigenvalues not converged
     c_bands:  1 eigenvalues not converged
     c_bands:  2 eigenvalues not converged
     c_bands:  1 eigenvalues not converged
     c_bands:  2 eigenvalues not converged
     c_bands:  1 eigenvalues not converged
     c_bands:  1 eigenvalues not converged
     c_bands:  2 eigenvalues not converged
     c_bands:  1 eigenvalues not converged
     c_bands:  1 eigenvalues not converged
     c_bands:  2 eigenvalues not converged
     ethr =  1.00E-06,  avg # of iterations = 17.5

     total cpu time spent up to now is      194.6 secs

     total energy              =    -541.93442356 Ry
     estimated scf accuracy    <     105.57874838 Ry

     total magnetization       =    -0.00 Bohr mag/cell
     absolute magnetization    =     0.00 Bohr mag/cell

     iteration #  2     ecut=    90.00 Ry     beta= 0.20
     Davidson diagonalization with overlap
     ethr =  1.00E-02,  avg # of iterations =  4.4

     total cpu time spent up to now is      211.1 secs

     total energy              =    -655.90005472 Ry
     estimated scf accuracy    <      65.27431378 Ry

     total magnetization       =    -0.00 Bohr mag/cell
     absolute magnetization    =     0.00 Bohr mag/cell

     iteration #  3     ecut=    90.00 Ry     beta= 0.20
     Davidson diagonalization with overlap
     ethr =  1.00E-02,  avg # of iterations =  2.0

     total cpu time spent up to now is      220.4 secs

     total energy              =    -635.90804866 Ry
     estimated scf accuracy    <      41.69346264 Ry

     total magnetization       =    -0.01 Bohr mag/cell
     absolute magnetization    =     0.01 Bohr mag/cell

     iteration #  4     ecut=    90.00 Ry     beta= 0.20
     Davidson diagonalization with overlap
     ethr =  1.00E-02,  avg # of iterations =  2.1

     total cpu time spent up to now is      231.2 secs

     total energy              =    -641.68968486 Ry
     estimated scf accuracy    <       0.96044464 Ry

     total magnetization       =    -0.01 Bohr mag/cell
     absolute magnetization    =     0.01 Bohr mag/cell

     iteration #  5     ecut=    90.00 Ry     beta= 0.20
     Davidson diagonalization with overlap
     ethr =  2.74E-03,  avg # of iterations =  1.0

     total cpu time spent up to now is      238.4 secs

     total energy              =    -641.78231561 Ry
     estimated scf accuracy    <       0.84886963 Ry

     total magnetization       =    -0.01 Bohr mag/cell
     absolute magnetization    =     0.01 Bohr mag/cell

     iteration #  6     ecut=    90.00 Ry     beta= 0.20
     Davidson diagonalization with overlap
     ethr =  2.43E-03,  avg # of iterations =  2.0

     total cpu time spent up to now is      247.4 secs

     total energy              =    -641.92443826 Ry
     estimated scf accuracy    <       1.74906475 Ry

     total magnetization       =    -0.01 Bohr mag/cell
     absolute magnetization    =     0.01 Bohr mag/cell

     iteration #  7     ecut=    90.00 Ry     beta= 0.20
     Davidson diagonalization with overlap
     ethr =  2.43E-03,  avg # of iterations =  1.0

     total cpu time spent up to now is      254.5 secs

     total energy              =    -641.72005910 Ry
     estimated scf accuracy    <       1.70310902 Ry

     total magnetization       =    -0.01 Bohr mag/cell
     absolute magnetization    =     0.01 Bohr mag/cell

     iteration #  8     ecut=    90.00 Ry     beta= 0.20
     Davidson diagonalization with overlap
     ethr =  2.43E-03,  avg # of iterations =  1.0

     total cpu time spent up to now is      261.7 secs

     total energy              =    -641.39059178 Ry
     estimated scf accuracy    <       0.80741673 Ry

     total magnetization       =    -0.01 Bohr mag/cell
     absolute magnetization    =     0.01 Bohr mag/cell

     iteration #  9     ecut=    90.00 Ry     beta= 0.20
     Davidson diagonalization with overlap
     ethr =  2.31E-03,  avg # of iterations =  2.1

     total cpu time spent up to now is      270.7 secs

     total energy              =    -641.70578951 Ry
     estimated scf accuracy    <       0.44628140 Ry

     total magnetization       =    -0.02 Bohr mag/cell
     absolute magnetization    =     0.02 Bohr mag/cell

     iteration # 10     ecut=    90.00 Ry     beta= 0.20
     Davidson diagonalization with overlap
     ethr =  1.28E-03,  avg # of iterations =  1.0

     total cpu time spent up to now is      277.9 secs

     total energy              =    -641.61587861 Ry
     estimated scf accuracy    <       0.49382160 Ry

     total magnetization       =    -0.02 Bohr mag/cell
     absolute magnetization    =     0.02 Bohr mag/cell

     iteration # 11     ecut=    90.00 Ry     beta= 0.20
     Davidson diagonalization with overlap
     ethr =  1.28E-03,  avg # of iterations =  1.0

     total cpu time spent up to now is      285.1 secs

     total energy              =    -641.61838953 Ry
     estimated scf accuracy    <       0.12377829 Ry

     total magnetization       =    -0.02 Bohr mag/cell
     absolute magnetization    =     0.02 Bohr mag/cell

     iteration # 12     ecut=    90.00 Ry     beta= 0.20
     Davidson diagonalization with overlap
     ethr =  3.54E-04,  avg # of iterations =  1.5

     total cpu time spent up to now is      292.6 secs

     total energy              =    -641.62554149 Ry
     estimated scf accuracy    <       0.03428986 Ry

     total magnetization       =    -0.03 Bohr mag/cell
     absolute magnetization    =     0.03 Bohr mag/cell

     iteration # 13     ecut=    90.00 Ry     beta= 0.20
     Davidson diagonalization with overlap
     ethr =  9.80E-05,  avg # of iterations =  1.0

     total cpu time spent up to now is      299.8 secs

     total energy              =    -641.62768982 Ry
     estimated scf accuracy    <       0.01028798 Ry

     total magnetization       =    -0.03 Bohr mag/cell
     absolute magnetization    =     0.03 Bohr mag/cell

     iteration # 14     ecut=    90.00 Ry     beta= 0.20
     Davidson diagonalization with overlap
     ethr =  2.94E-05,  avg # of iterations =  1.0

     total cpu time spent up to now is      307.0 secs

     total energy              =    -641.62048007 Ry
     estimated scf accuracy    <       0.01936109 Ry

     total magnetization       =    -0.03 Bohr mag/cell
     absolute magnetization    =     0.03 Bohr mag/cell

     iteration # 15     ecut=    90.00 Ry     beta= 0.20
     Davidson diagonalization with overlap
     ethr =  2.94E-05,  avg # of iterations =  2.2

     total cpu time spent up to now is      316.7 secs

     total energy              =    -641.62529756 Ry
     estimated scf accuracy    <       0.01377569 Ry

     total magnetization       =    -0.06 Bohr mag/cell
     absolute magnetization    =     0.06 Bohr mag/cell

     iteration # 16     ecut=    90.00 Ry     beta= 0.20
     Davidson diagonalization with overlap
     ethr =  2.94E-05,  avg # of iterations =  2.0

     total cpu time spent up to now is      325.3 secs

     total energy              =    -641.62305287 Ry
     estimated scf accuracy    <       0.04413992 Ry

     total magnetization       =    -0.05 Bohr mag/cell
     absolute magnetization    =     0.06 Bohr mag/cell

     iteration # 17     ecut=    90.00 Ry     beta= 0.20
     Davidson diagonalization with overlap
     ethr =  2.94E-05,  avg # of iterations =  2.0

     total cpu time spent up to now is      333.4 secs

     total energy              =    -641.62535274 Ry
     estimated scf accuracy    <       0.00406228 Ry

     total magnetization       =    -0.03 Bohr mag/cell
     absolute magnetization    =     0.03 Bohr mag/cell

     iteration # 18     ecut=    90.00 Ry     beta= 0.20
     Davidson diagonalization with overlap
     ethr =  1.16E-05,  avg # of iterations =  1.0

     total cpu time spent up to now is      340.6 secs

     total energy              =    -641.62494209 Ry
     estimated scf accuracy    <       0.00180384 Ry

     total magnetization       =    -0.03 Bohr mag/cell
     absolute magnetization    =     0.04 Bohr mag/cell

     iteration # 19     ecut=    90.00 Ry     beta= 0.20
     Davidson diagonalization with overlap
     ethr =  5.15E-06,  avg # of iterations =  1.9

     total cpu time spent up to now is      348.5 secs

     total energy              =    -641.62507434 Ry
     estimated scf accuracy    <       0.00010782 Ry

     total magnetization       =    -0.02 Bohr mag/cell
     absolute magnetization    =     0.02 Bohr mag/cell

     iteration # 20     ecut=    90.00 Ry     beta= 0.20
     Davidson diagonalization with overlap
     ethr =  3.08E-07,  avg # of iterations =  2.2

     total cpu time spent up to now is      358.3 secs

     total energy              =    -641.62509705 Ry
     estimated scf accuracy    <       0.00017737 Ry

     total magnetization       =     0.03 Bohr mag/cell
     absolute magnetization    =     0.03 Bohr mag/cell

     iteration # 21     ecut=    90.00 Ry     beta= 0.20
     Davidson diagonalization with overlap
     ethr =  3.08E-07,  avg # of iterations =  1.0

     total cpu time spent up to now is      365.5 secs

     total energy              =    -641.62511074 Ry
     estimated scf accuracy    <       0.00000407 Ry

     total magnetization       =    -0.00 Bohr mag/cell
     absolute magnetization    =     0.00 Bohr mag/cell

     iteration # 22     ecut=    90.00 Ry     beta= 0.20
     Davidson diagonalization with overlap
     ethr =  1.16E-08,  avg # of iterations =  2.0

     total cpu time spent up to now is      374.6 secs

     total energy              =    -641.62511134 Ry
     estimated scf accuracy    <       0.00000450 Ry

     total magnetization       =    -0.00 Bohr mag/cell
     absolute magnetization    =     0.00 Bohr mag/cell

     iteration # 23     ecut=    90.00 Ry     beta= 0.20
     Davidson diagonalization with overlap
     ethr =  1.16E-08,  avg # of iterations =  2.0

     total cpu time spent up to now is      383.5 secs

     total energy              =    -641.62511207 Ry
     estimated scf accuracy    <       0.00000132 Ry

     total magnetization       =    -0.00 Bohr mag/cell
     absolute magnetization    =     0.00 Bohr mag/cell

     iteration # 24     ecut=    90.00 Ry     beta= 0.20
     Davidson diagonalization with overlap
     ethr =  3.78E-09,  avg # of iterations =  1.6

     total cpu time spent up to now is      391.2 secs

     total energy              =    -641.62511226 Ry
     estimated scf accuracy    <       0.00000007 Ry

     total magnetization       =    -0.00 Bohr mag/cell
     absolute magnetization    =     0.00 Bohr mag/cell

     iteration # 25     ecut=    90.00 Ry     beta= 0.20
     Davidson diagonalization with overlap
     ethr =  2.11E-10,  avg # of iterations =  2.0

     total cpu time spent up to now is      399.6 secs

     total energy              =    -641.62511226 Ry
     estimated scf accuracy    <       0.00000004 Ry

     total magnetization       =    -0.00 Bohr mag/cell
     absolute magnetization    =     0.00 Bohr mag/cell

     iteration # 26     ecut=    90.00 Ry     beta= 0.20
     Davidson diagonalization with overlap
     ethr =  1.27E-10,  avg # of iterations =  1.2

     Magnetic moment per site:
     atom:    1    charge:   14.8585    magn:   -0.0002    constr:    0.0000
     atom:    2    charge:   13.7313    magn:   -0.0004    constr:    0.0000

     total cpu time spent up to now is      406.9 secs

     End of self-consistent calculation

     Number of k-points >= 100: set verbosity='high' to print the bands.

     the Fermi energy is    16.3532 ev

!    total energy              =    -641.62511227 Ry
     estimated scf accuracy    <          4.3E-09 Ry
     smearing contrib. (-TS)   =      -0.00366906 Ry
     internal energy E=F+TS    =    -641.62144320 Ry

     The total energy is F=E-TS. E is the sum of the following terms:
     one-electron contribution =    -379.33785739 Ry
     hartree contribution      =     210.19287531 Ry
     xc contribution           =     -68.20346116 Ry
     ewald contribution        =    -404.27299996 Ry

     total magnetization       =    -0.00 Bohr mag/cell
     absolute magnetization    =     0.00 Bohr mag/cell

     convergence has been achieved in  26 iterations

     Forces acting on atoms (cartesian axes, Ry/au):

     atom    1 type  1   force =    -0.00000036   -0.00000155    0.00000099
     atom    2 type  2   force =     0.00000036    0.00000155   -0.00000099

     Total force =     0.000003     Total SCF correction =     0.000005
     SCF correction compared to forces is large: reduce conv_thr to get better values


     Computing stress (Cartesian axis) and pressure

          total   stress  (Ry/bohr**3)                   (kbar)     P=       67.81
   0.00046098   0.00000000   0.00000000           67.81        0.00        0.00
   0.00000000   0.00046097  -0.00000000            0.00       67.81       -0.00
   0.00000000  -0.00000000   0.00046096            0.00       -0.00       67.81

     Energy error            =      1.2E+00
     Gradient error          =      1.6E-06
     Cell gradient error     =      4.6E-04


     number of scf cycles    =   2
     number of bfgs steps    =   1

     enthalpy old            =    -640.3849251891 Ry
     enthalpy new            =    -641.6251122670 Ry

     CASE: enthalpy_new < enthalpy_old

     new trust radius        =       0.0077678259 bohr
     new conv_thr            =            1.0E-10 Ry

     new unit-cell volume =    160.58264 a.u.^3 (    23.79589 Ang^3 )
     density =      8.20825 g/cm^3

CELL_PARAMETERS (alat=  6.66496610)
  -0.647279315  -0.000000072   0.647278864
   0.000000077   0.647278985   0.647278869
  -0.647279333   0.647278998  -0.000000090

ATOMIC_POSITIONS (alat)
Ni            0.6472793531        0.6472786390        0.6472791537
Co            0.0000000859        0.0000003757       -0.0000002369



     Writing output data file ./pwscf.save/
     NEW-OLD atomic charge density approx. for the potential

     Check: negative core charge=   -0.000037
     extrapolated charge   35.29374, renormalised to   35.00000
     Generating pointlists ...

     total cpu time spent up to now is      410.5 secs

     Self-consistent Calculation

     iteration #  1     ecut=    90.00 Ry     beta= 0.20
     Davidson diagonalization with overlap
     ethr =  1.00E-06,  avg # of iterations =  5.2

     total cpu time spent up to now is      427.6 secs

     total energy              =    -641.46787450 Ry
     estimated scf accuracy    <       0.30760701 Ry

     total magnetization       =    -0.00 Bohr mag/cell
     absolute magnetization    =     0.00 Bohr mag/cell

     iteration #  2     ecut=    90.00 Ry     beta= 0.20
     Davidson diagonalization with overlap
     ethr =  8.79E-04,  avg # of iterations =  2.2

     total cpu time spent up to now is      437.3 secs

     total energy              =    -641.62036952 Ry
     estimated scf accuracy    <       0.29913479 Ry

     total magnetization       =    -0.00 Bohr mag/cell
     absolute magnetization    =     0.00 Bohr mag/cell

     iteration #  3     ecut=    90.00 Ry     beta= 0.20
     Davidson diagonalization with overlap
     ethr =  8.55E-04,  avg # of iterations =  1.0

     total cpu time spent up to now is      444.5 secs

     total energy              =    -641.62926567 Ry
     estimated scf accuracy    <       0.11793480 Ry

     total magnetization       =    -0.00 Bohr mag/cell
     absolute magnetization    =     0.00 Bohr mag/cell

     iteration #  4     ecut=    90.00 Ry     beta= 0.20
     Davidson diagonalization with overlap
     ethr =  3.37E-04,  avg # of iterations =  1.0

     total cpu time spent up to now is      451.8 secs

     total energy              =    -641.62505692 Ry
     estimated scf accuracy    <       0.04445224 Ry

     total magnetization       =    -0.00 Bohr mag/cell
     absolute magnetization    =     0.00 Bohr mag/cell

     iteration #  5     ecut=    90.00 Ry     beta= 0.20
     Davidson diagonalization with overlap
     ethr =  1.27E-04,  avg # of iterations =  1.0

     total cpu time spent up to now is      459.0 secs

     total energy              =    -641.62692663 Ry
     estimated scf accuracy    <       0.00855785 Ry

     total magnetization       =    -0.00 Bohr mag/cell
     absolute magnetization    =     0.00 Bohr mag/cell

     iteration #  6     ecut=    90.00 Ry     beta= 0.20
     Davidson diagonalization with overlap
     ethr =  2.45E-05,  avg # of iterations =  1.0

     total cpu time spent up to now is      466.3 secs

     total energy              =    -641.62696074 Ry
     estimated scf accuracy    <       0.00754454 Ry

     total magnetization       =    -0.00 Bohr mag/cell
     absolute magnetization    =     0.00 Bohr mag/cell

     iteration #  7     ecut=    90.00 Ry     beta= 0.20
     Davidson diagonalization with overlap
     ethr =  2.16E-05,  avg # of iterations =  1.0

     total cpu time spent up to now is      473.5 secs

     total energy              =    -641.62698515 Ry
     estimated scf accuracy    <       0.00699408 Ry

     total magnetization       =    -0.00 Bohr mag/cell
     absolute magnetization    =     0.00 Bohr mag/cell

     iteration #  8     ecut=    90.00 Ry     beta= 0.20
     Davidson diagonalization with overlap
     ethr =  2.00E-05,  avg # of iterations =  1.0

     total cpu time spent up to now is      480.8 secs

     total energy              =    -641.62720219 Ry
     estimated scf accuracy    <       0.00710262 Ry

     total magnetization       =    -0.00 Bohr mag/cell
     absolute magnetization    =     0.00 Bohr mag/cell

     iteration #  9     ecut=    90.00 Ry     beta= 0.20
     Davidson diagonalization with overlap
     ethr =  2.00E-05,  avg # of iterations =  1.0

     total cpu time spent up to now is      488.0 secs

     total energy              =    -641.62403829 Ry
     estimated scf accuracy    <       0.00822335 Ry

     total magnetization       =    -0.00 Bohr mag/cell
     absolute magnetization    =     0.00 Bohr mag/cell

     iteration # 10     ecut=    90.00 Ry     beta= 0.20
     Davidson diagonalization with overlap
     ethr =  2.00E-05,  avg # of iterations =  2.0

     total cpu time spent up to now is      497.0 secs

     total energy              =    -641.62565195 Ry
     estimated scf accuracy    <       0.00022483 Ry

     total magnetization       =    -0.00 Bohr mag/cell
     absolute magnetization    =     0.00 Bohr mag/cell

     iteration # 11     ecut=    90.00 Ry     beta= 0.20
     Davidson diagonalization with overlap
     ethr =  6.42E-07,  avg # of iterations =  1.3

     total cpu time spent up to now is      504.5 secs

     total energy              =    -641.62568740 Ry
     estimated scf accuracy    <       0.00000257 Ry

     total magnetization       =    -0.00 Bohr mag/cell
     absolute magnetization    =     0.00 Bohr mag/cell

     iteration # 12     ecut=    90.00 Ry     beta= 0.20
     Davidson diagonalization with overlap
     ethr =  7.34E-09,  avg # of iterations =  2.0

     total cpu time spent up to now is      513.4 secs

     total energy              =    -641.62568808 Ry
     estimated scf accuracy    <       0.00000207 Ry

     total magnetization       =    -0.00 Bohr mag/cell
     absolute magnetization    =     0.00 Bohr mag/cell

     iteration # 13     ecut=    90.00 Ry     beta= 0.20
     Davidson diagonalization with overlap
     ethr =  5.91E-09,  avg # of iterations =  1.1

     total cpu time spent up to now is      520.8 secs

     total energy              =    -641.62568809 Ry
     estimated scf accuracy    <       0.00000381 Ry

     total magnetization       =    -0.00 Bohr mag/cell
     absolute magnetization    =     0.00 Bohr mag/cell

     iteration # 14     ecut=    90.00 Ry     beta= 0.20
     Davidson diagonalization with overlap
     ethr =  5.91E-09,  avg # of iterations =  1.6

     total cpu time spent up to now is      528.5 secs

     total energy              =    -641.62569113 Ry
     estimated scf accuracy    <       0.00000404 Ry

     total magnetization       =    -0.00 Bohr mag/cell
     absolute magnetization    =     0.00 Bohr mag/cell

     iteration # 15     ecut=    90.00 Ry     beta= 0.20
     Davidson diagonalization with overlap
     ethr =  5.91E-09,  avg # of iterations =  2.5

     total cpu time spent up to now is      538.7 secs

     total energy              =    -641.62566781 Ry
     estimated scf accuracy    <       0.00003086 Ry

     total magnetization       =    -0.00 Bohr mag/cell
     absolute magnetization    =     0.00 Bohr mag/cell

     iteration # 16     ecut=    90.00 Ry     beta= 0.20
     Davidson diagonalization with overlap
     ethr =  5.91E-09,  avg # of iterations =  4.1

     total cpu time spent up to now is      552.0 secs

     total energy              =    -641.62572186 Ry
     estimated scf accuracy    <       0.00030069 Ry

     total magnetization       =    -0.00 Bohr mag/cell
     absolute magnetization    =     0.00 Bohr mag/cell

     iteration # 17     ecut=    90.00 Ry     beta= 0.20
     Davidson diagonalization with overlap
     ethr =  5.91E-09,  avg # of iterations =  2.4

     total cpu time spent up to now is      562.7 secs

     total energy              =    -641.62571438 Ry
     estimated scf accuracy    <       0.00019528 Ry

     total magnetization       =    -0.00 Bohr mag/cell
     absolute magnetization    =     0.00 Bohr mag/cell

     iteration # 18     ecut=    90.00 Ry     beta= 0.20
     Davidson diagonalization with overlap
     ethr =  5.91E-09,  avg # of iterations =  2.0

     total cpu time spent up to now is      571.7 secs

     total energy              =    -641.62566429 Ry
     estimated scf accuracy    <       0.00014820 Ry

     total magnetization       =    -0.00 Bohr mag/cell
     absolute magnetization    =     0.00 Bohr mag/cell

     iteration # 19     ecut=    90.00 Ry     beta= 0.20
     Davidson diagonalization with overlap
     ethr =  5.91E-09,  avg # of iterations =  3.6

     total cpu time spent up to now is      584.3 secs

     total energy              =    -641.62568749 Ry
     estimated scf accuracy    <       0.00000020 Ry

     total magnetization       =    -0.00 Bohr mag/cell
     absolute magnetization    =     0.00 Bohr mag/cell

     iteration # 20     ecut=    90.00 Ry     beta= 0.20
     Davidson diagonalization with overlap
     ethr =  5.63E-10,  avg # of iterations =  1.7

     total cpu time spent up to now is      592.1 secs

     total energy              =    -641.62568750 Ry
     estimated scf accuracy    <       0.00000033 Ry

     total magnetization       =    -0.00 Bohr mag/cell
     absolute magnetization    =     0.00 Bohr mag/cell

     iteration # 21     ecut=    90.00 Ry     beta= 0.20
     Davidson diagonalization with overlap
     ethr =  5.63E-10,  avg # of iterations =  1.9

     total cpu time spent up to now is      600.1 secs

     total energy              =    -641.62568749 Ry
     estimated scf accuracy    <       0.00000009 Ry

     total magnetization       =    -0.00 Bohr mag/cell
     absolute magnetization    =     0.00 Bohr mag/cell

     iteration # 22     ecut=    90.00 Ry     beta= 0.20
     Davidson diagonalization with overlap
     ethr =  2.48E-10,  avg # of iterations =  1.5

     total cpu time spent up to now is      607.8 secs

     total energy              =    -641.62568750 Ry
     estimated scf accuracy    <       0.00000001 Ry

     total magnetization       =    -0.00 Bohr mag/cell
     absolute magnetization    =     0.00 Bohr mag/cell

     iteration # 23     ecut=    90.00 Ry     beta= 0.20
     Davidson diagonalization with overlap
     ethr =  3.79E-11,  avg # of iterations =  2.0

     total cpu time spent up to now is      617.0 secs

     total energy              =    -641.62568750 Ry
     estimated scf accuracy    <          5.2E-09 Ry

     total magnetization       =    -0.00 Bohr mag/cell
     absolute magnetization    =     0.00 Bohr mag/cell

     iteration # 24     ecut=    90.00 Ry     beta= 0.20
     Davidson diagonalization with overlap
     ethr =  1.49E-11,  avg # of iterations =  1.1

     total cpu time spent up to now is      624.3 secs

     total energy              =    -641.62568750 Ry
     estimated scf accuracy    <          1.1E-09 Ry

     total magnetization       =    -0.00 Bohr mag/cell
     absolute magnetization    =     0.00 Bohr mag/cell

     iteration # 25     ecut=    90.00 Ry     beta= 0.20
     Davidson diagonalization with overlap
     ethr =  3.27E-12,  avg # of iterations =  1.0

     total cpu time spent up to now is      631.6 secs

     total energy              =    -641.62568750 Ry
     estimated scf accuracy    <          7.2E-10 Ry

     total magnetization       =     0.00 Bohr mag/cell
     absolute magnetization    =     0.00 Bohr mag/cell

     iteration # 26     ecut=    90.00 Ry     beta= 0.20
     Davidson diagonalization with overlap
     ethr =  2.05E-12,  avg # of iterations =  1.0

     total cpu time spent up to now is      638.8 secs

     total energy              =    -641.62568750 Ry
     estimated scf accuracy    <          1.7E-10 Ry

     total magnetization       =     0.00 Bohr mag/cell
     absolute magnetization    =     0.00 Bohr mag/cell

     iteration # 27     ecut=    90.00 Ry     beta= 0.20
     Davidson diagonalization with overlap
     ethr =  5.00E-13,  avg # of iterations =  2.0

     Magnetic moment per site:
     atom:    1    charge:   14.8568    magn:    0.0000    constr:    0.0000
     atom:    2    charge:   13.7294    magn:    0.0000    constr:    0.0000

     total cpu time spent up to now is      647.2 secs

     End of self-consistent calculation

     Number of k-points >= 100: set verbosity='high' to print the bands.

     the Fermi energy is    16.1571 ev

!    total energy              =    -641.62568750 Ry
     estimated scf accuracy    <          3.6E-11 Ry
     smearing contrib. (-TS)   =      -0.00372666 Ry
     internal energy E=F+TS    =    -641.62196084 Ry

     The total energy is F=E-TS. E is the sum of the following terms:
     one-electron contribution =    -381.37774092 Ry
     hartree contribution      =     210.97874619 Ry
     xc contribution           =     -68.19076809 Ry
     ewald contribution        =    -403.03219803 Ry

     total magnetization       =     0.00 Bohr mag/cell
     absolute magnetization    =     0.00 Bohr mag/cell

     convergence has been achieved in  27 iterations

     Forces acting on atoms (cartesian axes, Ry/au):

     atom    1 type  1   force =     0.00000012    0.00000052   -0.00000033
     atom    2 type  2   force =    -0.00000012   -0.00000052    0.00000033

     Total force =     0.000001     Total SCF correction =     0.000000
     SCF correction compared to forces is large: reduce conv_thr to get better values


     Computing stress (Cartesian axis) and pressure

          total   stress  (Ry/bohr**3)                   (kbar)     P=       48.46
   0.00032939   0.00000001  -0.00000001           48.46        0.00       -0.00
   0.00000001   0.00032942   0.00000001            0.00       48.46        0.00
  -0.00000001   0.00000001   0.00032944           -0.00        0.00       48.46

     Energy error            =      5.8E-04
     Gradient error          =      5.2E-07
     Cell gradient error     =      3.3E-04


     number of scf cycles    =   3
     number of bfgs steps    =   2

     enthalpy old            =    -641.6251122670 Ry
     enthalpy new            =    -641.6256875014 Ry

     CASE: enthalpy_new < enthalpy_old

     new trust radius        =       0.0085577477 bohr
     new conv_thr            =            1.0E-10 Ry

     new unit-cell volume =    162.21432 a.u.^3 (    24.03768 Ang^3 )
     density =      8.12568 g/cm^3

CELL_PARAMETERS (alat=  6.66496610)
  -0.649463715   0.000000046   0.649464631
   0.000000141   0.649464334   0.649464819
  -0.649463344   0.649463776   0.000000417

ATOMIC_POSITIONS (alat)
Ni            0.6494636990        0.6494644070        0.6494648199
Co            0.0000000421        0.0000001835       -0.0000001160



     Writing output data file ./pwscf.save/
     NEW-OLD atomic charge density approx. for the potential

     Check: negative core charge=   -0.000036
     extrapolated charge   35.32188, renormalised to   35.00000
     Generating pointlists ...

     total cpu time spent up to now is      650.8 secs

     Self-consistent Calculation

     iteration #  1     ecut=    90.00 Ry     beta= 0.20
     Davidson diagonalization with overlap
     ethr =  1.00E-06,  avg # of iterations =  5.3

     total cpu time spent up to now is      668.5 secs

     total energy              =    -641.43382616 Ry
     estimated scf accuracy    <       0.37551302 Ry

     total magnetization       =     0.00 Bohr mag/cell
     absolute magnetization    =     0.00 Bohr mag/cell

     iteration #  2     ecut=    90.00 Ry     beta= 0.20
     Davidson diagonalization with overlap
     ethr =  1.07E-03,  avg # of iterations =  2.3

     total cpu time spent up to now is      678.2 secs

     total energy              =    -641.61940077 Ry
     estimated scf accuracy    <       0.37299417 Ry

     total magnetization       =     0.00 Bohr mag/cell
     absolute magnetization    =     0.00 Bohr mag/cell

     iteration #  3     ecut=    90.00 Ry     beta= 0.20
     Davidson diagonalization with overlap
     ethr =  1.07E-03,  avg # of iterations =  1.0

     total cpu time spent up to now is      685.4 secs

     total energy              =    -641.63041951 Ry
     estimated scf accuracy    <       0.14631191 Ry

     total magnetization       =     0.00 Bohr mag/cell
     absolute magnetization    =     0.00 Bohr mag/cell

     iteration #  4     ecut=    90.00 Ry     beta= 0.20
     Davidson diagonalization with overlap
     ethr =  4.18E-04,  avg # of iterations =  1.0

     total cpu time spent up to now is      692.7 secs

     total energy              =    -641.62531391 Ry
     estimated scf accuracy    <       0.05535627 Ry

     total magnetization       =     0.00 Bohr mag/cell
     absolute magnetization    =     0.00 Bohr mag/cell

     iteration #  5     ecut=    90.00 Ry     beta= 0.20
     Davidson diagonalization with overlap
     ethr =  1.58E-04,  avg # of iterations =  1.0

     total cpu time spent up to now is      699.8 secs

     total energy              =    -641.62780686 Ry
     estimated scf accuracy    <       0.01054363 Ry

     total magnetization       =     0.00 Bohr mag/cell
     absolute magnetization    =     0.00 Bohr mag/cell

     iteration #  6     ecut=    90.00 Ry     beta= 0.20
     Davidson diagonalization with overlap
     ethr =  3.01E-05,  avg # of iterations =  1.0

     total cpu time spent up to now is      707.0 secs

     total energy              =    -641.62793236 Ry
     estimated scf accuracy    <       0.01026720 Ry

     total magnetization       =     0.00 Bohr mag/cell
     absolute magnetization    =     0.00 Bohr mag/cell

     iteration #  7     ecut=    90.00 Ry     beta= 0.20
     Davidson diagonalization with overlap
     ethr =  2.93E-05,  avg # of iterations =  1.0

     total cpu time spent up to now is      714.2 secs

     total energy              =    -641.62791358 Ry
     estimated scf accuracy    <       0.01001995 Ry

     total magnetization       =     0.00 Bohr mag/cell
     absolute magnetization    =     0.00 Bohr mag/cell

     iteration #  8     ecut=    90.00 Ry     beta= 0.20
     Davidson diagonalization with overlap
     ethr =  2.86E-05,  avg # of iterations =  1.0

     total cpu time spent up to now is      721.3 secs

     total energy              =    -641.62687617 Ry
     estimated scf accuracy    <       0.00992131 Ry

     total magnetization       =     0.00 Bohr mag/cell
     absolute magnetization    =     0.00 Bohr mag/cell

     iteration #  9     ecut=    90.00 Ry     beta= 0.20
     Davidson diagonalization with overlap
     ethr =  2.83E-05,  avg # of iterations =  1.0

     total cpu time spent up to now is      728.5 secs

     total energy              =    -641.63101924 Ry
     estimated scf accuracy    <       0.00502919 Ry

     total magnetization       =     0.00 Bohr mag/cell
     absolute magnetization    =     0.00 Bohr mag/cell

     iteration # 10     ecut=    90.00 Ry     beta= 0.20
     Davidson diagonalization with overlap
     ethr =  1.44E-05,  avg # of iterations =  2.0

     total cpu time spent up to now is      737.9 secs

     total energy              =    -641.66127667 Ry
     estimated scf accuracy    <       0.03978866 Ry

     total magnetization       =     0.00 Bohr mag/cell
     absolute magnetization    =     0.00 Bohr mag/cell

     iteration # 11     ecut=    90.00 Ry     beta= 0.20
     Davidson diagonalization with overlap
     ethr =  1.44E-05,  avg # of iterations =  3.0

     total cpu time spent up to now is      749.9 secs

     total energy              =    -641.67910844 Ry
     estimated scf accuracy    <       0.28825932 Ry

     total magnetization       =     0.00 Bohr mag/cell
     absolute magnetization    =     0.00 Bohr mag/cell

     iteration # 12     ecut=    90.00 Ry     beta= 0.20
     Davidson diagonalization with overlap
     ethr =  1.44E-05,  avg # of iterations =  1.0

     total cpu time spent up to now is      757.1 secs

     total energy              =    -641.66743380 Ry
     estimated scf accuracy    <       0.29599854 Ry

     total magnetization       =     0.00 Bohr mag/cell
     absolute magnetization    =     0.00 Bohr mag/cell

     iteration # 13     ecut=    90.00 Ry     beta= 0.20
     Davidson diagonalization with overlap
     ethr =  1.44E-05,  avg # of iterations =  1.9

     total cpu time spent up to now is      765.0 secs

     total energy              =    -641.56113678 Ry
     estimated scf accuracy    <       0.23288569 Ry

     total magnetization       =     0.00 Bohr mag/cell
     absolute magnetization    =     0.00 Bohr mag/cell

     iteration # 14     ecut=    90.00 Ry     beta= 0.20
     Davidson diagonalization with overlap
     ethr =  1.44E-05,  avg # of iterations =  3.8

     total cpu time spent up to now is      778.2 secs

     total energy              =    -641.61329882 Ry
     estimated scf accuracy    <       0.05172275 Ry

     total magnetization       =     0.00 Bohr mag/cell
     absolute magnetization    =     0.00 Bohr mag/cell

     iteration # 15     ecut=    90.00 Ry     beta= 0.20
     Davidson diagonalization with overlap
     ethr =  1.44E-05,  avg # of iterations =  3.0

     total cpu time spent up to now is      790.1 secs

     total energy              =    -641.62525936 Ry
     estimated scf accuracy    <       0.00646189 Ry

     total magnetization       =     0.00 Bohr mag/cell
     absolute magnetization    =     0.00 Bohr mag/cell

     iteration # 16     ecut=    90.00 Ry     beta= 0.20
     Davidson diagonalization with overlap
     ethr =  1.44E-05,  avg # of iterations =  2.0

     total cpu time spent up to now is      798.6 secs

     total energy              =    -641.62608967 Ry
     estimated scf accuracy    <       0.00007316 Ry

     total magnetization       =     0.00 Bohr mag/cell
     absolute magnetization    =     0.00 Bohr mag/cell

     iteration # 17     ecut=    90.00 Ry     beta= 0.20
     Davidson diagonalization with overlap
     ethr =  2.09E-07,  avg # of iterations =  2.8

     total cpu time spent up to now is      808.9 secs

     total energy              =    -641.62609765 Ry
     estimated scf accuracy    <       0.00016480 Ry

     total magnetization       =     0.00 Bohr mag/cell
     absolute magnetization    =     0.00 Bohr mag/cell

     iteration # 18     ecut=    90.00 Ry     beta= 0.20
     Davidson diagonalization with overlap
     ethr =  2.09E-07,  avg # of iterations =  2.0

     total cpu time spent up to now is      817.8 secs

     total energy              =    -641.62611481 Ry
     estimated scf accuracy    <       0.00000249 Ry

     total magnetization       =     0.00 Bohr mag/cell
     absolute magnetization    =     0.00 Bohr mag/cell

     iteration # 19     ecut=    90.00 Ry     beta= 0.20
     Davidson diagonalization with overlap
     ethr =  7.11E-09,  avg # of iterations =  3.0

     total cpu time spent up to now is      829.3 secs

     total energy              =    -641.62611774 Ry
     estimated scf accuracy    <       0.00001580 Ry

     total magnetization       =     0.00 Bohr mag/cell
     absolute magnetization    =     0.00 Bohr mag/cell

     iteration # 20     ecut=    90.00 Ry     beta= 0.20
     Davidson diagonalization with overlap
     ethr =  7.11E-09,  avg # of iterations =  1.3

     total cpu time spent up to now is      836.8 secs

     total energy              =    -641.62611554 Ry
     estimated scf accuracy    <       0.00000827 Ry

     total magnetization       =     0.00 Bohr mag/cell
     absolute magnetization    =     0.00 Bohr mag/cell

     iteration # 21     ecut=    90.00 Ry     beta= 0.20
     Davidson diagonalization with overlap
     ethr =  7.11E-09,  avg # of iterations =  2.0

     total cpu time spent up to now is      846.1 secs

     total energy              =    -641.62611642 Ry
     estimated scf accuracy    <       0.00000016 Ry

     total magnetization       =     0.00 Bohr mag/cell
     absolute magnetization    =     0.00 Bohr mag/cell

     iteration # 22     ecut=    90.00 Ry     beta= 0.20
     Davidson diagonalization with overlap
     ethr =  4.45E-10,  avg # of iterations =  2.9

     total cpu time spent up to now is      857.2 secs

     total energy              =    -641.62611646 Ry
     estimated scf accuracy    <       0.00000026 Ry

     total magnetization       =     0.00 Bohr mag/cell
     absolute magnetization    =     0.00 Bohr mag/cell

     iteration # 23     ecut=    90.00 Ry     beta= 0.20
     Davidson diagonalization with overlap
     ethr =  4.45E-10,  avg # of iterations =  2.0

     total cpu time spent up to now is      866.0 secs

     total energy              =    -641.62611648 Ry
     estimated scf accuracy    <          7.9E-09 Ry

     total magnetization       =     0.00 Bohr mag/cell
     absolute magnetization    =     0.00 Bohr mag/cell

     iteration # 24     ecut=    90.00 Ry     beta= 0.20
     Davidson diagonalization with overlap
     ethr =  2.26E-11,  avg # of iterations =  2.0

     total cpu time spent up to now is      874.7 secs

     total energy              =    -641.62611648 Ry
     estimated scf accuracy    <          4.1E-10 Ry

     total magnetization       =     0.00 Bohr mag/cell
     absolute magnetization    =     0.00 Bohr mag/cell

     iteration # 25     ecut=    90.00 Ry     beta= 0.20
     Davidson diagonalization with overlap
     ethr =  1.17E-12,  avg # of iterations =  1.7

     total cpu time spent up to now is      882.9 secs

     total energy              =    -641.62611648 Ry
     estimated scf accuracy    <          5.1E-10 Ry

     total magnetization       =     0.00 Bohr mag/cell
     absolute magnetization    =     0.00 Bohr mag/cell

     iteration # 26     ecut=    90.00 Ry     beta= 0.20
     Davidson diagonalization with overlap
     ethr =  1.17E-12,  avg # of iterations =  2.9

     total cpu time spent up to now is      893.9 secs

     total energy              =    -641.62611648 Ry
     estimated scf accuracy    <          2.1E-09 Ry

     total magnetization       =     0.00 Bohr mag/cell
     absolute magnetization    =     0.00 Bohr mag/cell

     iteration # 27     ecut=    90.00 Ry     beta= 0.20
     Davidson diagonalization with overlap
     ethr =  1.17E-12,  avg # of iterations =  2.4

     Magnetic moment per site:
     atom:    1    charge:   14.8546    magn:    0.0000    constr:    0.0000
     atom:    2    charge:   13.7269    magn:    0.0000    constr:    0.0000

     total cpu time spent up to now is      904.4 secs

     End of self-consistent calculation

     Number of k-points >= 100: set verbosity='high' to print the bands.

     the Fermi energy is    15.9441 ev

!    total energy              =    -641.62611648 Ry
     estimated scf accuracy    <          2.3E-11 Ry
     smearing contrib. (-TS)   =      -0.00379145 Ry
     internal energy E=F+TS    =    -641.62232503 Ry

     The total energy is F=E-TS. E is the sum of the following terms:
     one-electron contribution =    -383.61040490 Ry
     hartree contribution      =     211.84162503 Ry
     xc contribution           =     -68.17724176 Ry
     ewald contribution        =    -401.67630340 Ry

     total magnetization       =     0.00 Bohr mag/cell
     absolute magnetization    =     0.00 Bohr mag/cell

     convergence has been achieved in  27 iterations

     Forces acting on atoms (cartesian axes, Ry/au):

     atom    1 type  1   force =     0.00000005    0.00000023   -0.00000014
     atom    2 type  2   force =    -0.00000005   -0.00000023    0.00000014

     Total force =     0.000000     Total SCF correction =     0.000000
     SCF correction compared to forces is large: reduce conv_thr to get better values


     Computing stress (Cartesian axis) and pressure

          total   stress  (Ry/bohr**3)                   (kbar)     P=       29.68
   0.00020177  -0.00000000   0.00000001           29.68       -0.00        0.00
  -0.00000000   0.00020175   0.00000001           -0.00       29.68        0.00
   0.00000001   0.00000001   0.00020174            0.00        0.00       29.68

     Energy error            =      4.3E-04
     Gradient error          =      2.3E-07
     Cell gradient error     =      2.0E-04


     number of scf cycles    =   4
     number of bfgs steps    =   3

     enthalpy old            =    -641.6256875014 Ry
     enthalpy new            =    -641.6261164849 Ry

     CASE: enthalpy_new < enthalpy_old

     new trust radius        =       0.0128582559 bohr
     new conv_thr            =            1.0E-10 Ry

     new unit-cell volume =    164.68290 a.u.^3 (    24.40349 Ang^3 )
     density =      8.00388 g/cm^3

CELL_PARAMETERS (alat=  6.66496610)
  -0.652741856   0.000000745   0.652742071
   0.000000298   0.652742692   0.652743114
  -0.652741852   0.652741645   0.000000749

ATOMIC_POSITIONS (alat)
Ni            0.6527423120        0.6527428939        0.6527432292
Co           -0.0000000115       -0.0000000509        0.0000000317



     Writing output data file ./pwscf.save/
     NEW-OLD atomic charge density approx. for the potential

     Check: negative core charge=   -0.000036
     extrapolated charge   35.47968, renormalised to   35.00000
     Generating pointlists ...

     total cpu time spent up to now is      908.1 secs

     Self-consistent Calculation

     iteration #  1     ecut=    90.00 Ry     beta= 0.20
     Davidson diagonalization with overlap
     ethr =  1.00E-06,  avg # of iterations =  5.8

     total cpu time spent up to now is      926.6 secs

     total energy              =    -641.18961020 Ry
     estimated scf accuracy    <       0.85448118 Ry

     total magnetization       =     0.00 Bohr mag/cell
     absolute magnetization    =     0.00 Bohr mag/cell

     iteration #  2     ecut=    90.00 Ry     beta= 0.20
     Davidson diagonalization with overlap
     ethr =  2.44E-03,  avg # of iterations =  2.3

     total cpu time spent up to now is      936.3 secs

     total energy              =    -641.61421296 Ry
     estimated scf accuracy    <       0.84819721 Ry

     total magnetization       =     0.00 Bohr mag/cell
     absolute magnetization    =     0.00 Bohr mag/cell

     iteration #  3     ecut=    90.00 Ry     beta= 0.20
     Davidson diagonalization with overlap
     ethr =  2.42E-03,  avg # of iterations =  1.0

     total cpu time spent up to now is      943.5 secs

     total energy              =    -641.63754384 Ry
     estimated scf accuracy    <       0.31082080 Ry

     total magnetization       =     0.00 Bohr mag/cell
     absolute magnetization    =     0.00 Bohr mag/cell

     iteration #  4     ecut=    90.00 Ry     beta= 0.20
     Davidson diagonalization with overlap
     ethr =  8.88E-04,  avg # of iterations =  1.0

     total cpu time spent up to now is      950.7 secs

     total energy              =    -641.62541365 Ry
     estimated scf accuracy    <       0.13238905 Ry

     total magnetization       =     0.00 Bohr mag/cell
     absolute magnetization    =     0.00 Bohr mag/cell

     iteration #  5     ecut=    90.00 Ry     beta= 0.20
     Davidson diagonalization with overlap
     ethr =  3.78E-04,  avg # of iterations =  1.0

     total cpu time spent up to now is      957.9 secs

     total energy              =    -641.63143100 Ry
     estimated scf accuracy    <       0.02724967 Ry

     total magnetization       =     0.00 Bohr mag/cell
     absolute magnetization    =     0.00 Bohr mag/cell

     iteration #  6     ecut=    90.00 Ry     beta= 0.20
     Davidson diagonalization with overlap
     ethr =  7.79E-05,  avg # of iterations =  1.0

     total cpu time spent up to now is      965.0 secs

     total energy              =    -641.63184309 Ry
     estimated scf accuracy    <       0.03056886 Ry

     total magnetization       =     0.00 Bohr mag/cell
     absolute magnetization    =     0.00 Bohr mag/cell

     iteration #  7     ecut=    90.00 Ry     beta= 0.20
     Davidson diagonalization with overlap
     ethr =  7.79E-05,  avg # of iterations =  1.0

     total cpu time spent up to now is      972.2 secs

     total energy              =    -641.63076589 Ry
     estimated scf accuracy    <       0.03064342 Ry

     total magnetization       =     0.00 Bohr mag/cell
     absolute magnetization    =     0.00 Bohr mag/cell

     iteration #  8     ecut=    90.00 Ry     beta= 0.20
     Davidson diagonalization with overlap
     ethr =  7.79E-05,  avg # of iterations =  1.0

     total cpu time spent up to now is      979.4 secs

     total energy              =    -641.61755091 Ry
     estimated scf accuracy    <       0.02495445 Ry

     total magnetization       =     0.00 Bohr mag/cell
     absolute magnetization    =     0.00 Bohr mag/cell

     iteration #  9     ecut=    90.00 Ry     beta= 0.20
     Davidson diagonalization with overlap
     ethr =  7.13E-05,  avg # of iterations =  2.0

     total cpu time spent up to now is      988.5 secs

     total energy              =    -641.62636082 Ry
     estimated scf accuracy    <       0.01493201 Ry

     total magnetization       =     0.00 Bohr mag/cell
     absolute magnetization    =     0.00 Bohr mag/cell

     iteration # 10     ecut=    90.00 Ry     beta= 0.20
     Davidson diagonalization with overlap
     ethr =  4.27E-05,  avg # of iterations =  1.0

     total cpu time spent up to now is      995.7 secs

     total energy              =    -641.62664653 Ry
     estimated scf accuracy    <       0.00338036 Ry

     total magnetization       =     0.00 Bohr mag/cell
     absolute magnetization    =     0.00 Bohr mag/cell

     iteration # 11     ecut=    90.00 Ry     beta= 0.20
     Davidson diagonalization with overlap
     ethr =  9.66E-06,  avg # of iterations =  1.0

     total cpu time spent up to now is     1002.9 secs

     total energy              =    -641.62661733 Ry
     estimated scf accuracy    <       0.00167655 Ry

     total magnetization       =     0.00 Bohr mag/cell
     absolute magnetization    =     0.00 Bohr mag/cell

     iteration # 12     ecut=    90.00 Ry     beta= 0.20
     Davidson diagonalization with overlap
     ethr =  4.79E-06,  avg # of iterations =  1.0

     total cpu time spent up to now is     1010.1 secs

     total energy              =    -641.62644975 Ry
     estimated scf accuracy    <       0.00125909 Ry

     total magnetization       =     0.00 Bohr mag/cell
     absolute magnetization    =     0.00 Bohr mag/cell

     iteration # 13     ecut=    90.00 Ry     beta= 0.20
     Davidson diagonalization with overlap
     ethr =  3.60E-06,  avg # of iterations =  1.0

     total cpu time spent up to now is     1017.3 secs

     total energy              =    -641.62644693 Ry
     estimated scf accuracy    <       0.00047656 Ry

     total magnetization       =     0.00 Bohr mag/cell
     absolute magnetization    =     0.00 Bohr mag/cell

     iteration # 14     ecut=    90.00 Ry     beta= 0.20
     Davidson diagonalization with overlap
     ethr =  1.36E-06,  avg # of iterations =  1.0

     total cpu time spent up to now is     1024.6 secs

     total energy              =    -641.62643865 Ry
     estimated scf accuracy    <       0.00031277 Ry

     total magnetization       =     0.00 Bohr mag/cell
     absolute magnetization    =     0.00 Bohr mag/cell

     iteration # 15     ecut=    90.00 Ry     beta= 0.20
     Davidson diagonalization with overlap
     ethr =  8.94E-07,  avg # of iterations =  1.0

     total cpu time spent up to now is     1031.8 secs

     total energy              =    -641.62634636 Ry
     estimated scf accuracy    <       0.00025107 Ry

     total magnetization       =     0.00 Bohr mag/cell
     absolute magnetization    =     0.00 Bohr mag/cell

     iteration # 16     ecut=    90.00 Ry     beta= 0.20
     Davidson diagonalization with overlap
     ethr =  7.17E-07,  avg # of iterations =  2.0

     total cpu time spent up to now is     1040.6 secs

     total energy              =    -641.62639390 Ry
     estimated scf accuracy    <       0.00000619 Ry

     total magnetization       =     0.00 Bohr mag/cell
     absolute magnetization    =     0.00 Bohr mag/cell

     iteration # 17     ecut=    90.00 Ry     beta= 0.20
     Davidson diagonalization with overlap
     ethr =  1.77E-08,  avg # of iterations =  2.1

     total cpu time spent up to now is     1049.7 secs

     total energy              =    -641.62639215 Ry
     estimated scf accuracy    <       0.00002003 Ry

     total magnetization       =     0.00 Bohr mag/cell
     absolute magnetization    =     0.00 Bohr mag/cell

     iteration # 18     ecut=    90.00 Ry     beta= 0.20
     Davidson diagonalization with overlap
     ethr =  1.77E-08,  avg # of iterations =  1.1

     total cpu time spent up to now is     1057.0 secs

     total energy              =    -641.62639290 Ry
     estimated scf accuracy    <       0.00000644 Ry

     total magnetization       =     0.00 Bohr mag/cell
     absolute magnetization    =     0.00 Bohr mag/cell

     iteration # 19     ecut=    90.00 Ry     beta= 0.20
     Davidson diagonalization with overlap
     ethr =  1.77E-08,  avg # of iterations =  1.0

     total cpu time spent up to now is     1064.2 secs

     total energy              =    -641.62639186 Ry
     estimated scf accuracy    <       0.00000726 Ry

     total magnetization       =     0.00 Bohr mag/cell
     absolute magnetization    =     0.00 Bohr mag/cell

     iteration # 20     ecut=    90.00 Ry     beta= 0.20
     Davidson diagonalization with overlap
     ethr =  1.77E-08,  avg # of iterations =  1.5

     total cpu time spent up to now is     1071.8 secs

     total energy              =    -641.62639185 Ry
     estimated scf accuracy    <       0.00000217 Ry

     total magnetization       =     0.00 Bohr mag/cell
     absolute magnetization    =     0.00 Bohr mag/cell

     iteration # 21     ecut=    90.00 Ry     beta= 0.20
     Davidson diagonalization with overlap
     ethr =  6.21E-09,  avg # of iterations =  1.0

     total cpu time spent up to now is     1079.0 secs

     total energy              =    -641.62639137 Ry
     estimated scf accuracy    <       0.00000119 Ry

     total magnetization       =     0.00 Bohr mag/cell
     absolute magnetization    =     0.00 Bohr mag/cell

     iteration # 22     ecut=    90.00 Ry     beta= 0.20
     Davidson diagonalization with overlap
     ethr =  3.41E-09,  avg # of iterations =  2.0

     total cpu time spent up to now is     1088.1 secs

     total energy              =    -641.62639170 Ry
     estimated scf accuracy    <       0.00000044 Ry

     total magnetization       =     0.00 Bohr mag/cell
     absolute magnetization    =     0.00 Bohr mag/cell

     iteration # 23     ecut=    90.00 Ry     beta= 0.20
[...]
     Generated by new atomic code, or converted to UPF format
     Using radial grid of  863 points,  6 beta functions with: 
                l(1) =   0
                l(2) =   0
                l(3) =   1
                l(4) =   1
                l(5) =   2
                l(6) =   2
     Q(r) pseudized with  8 coefficients,  rinner =    1.200   1.200   1.200
                                                       1.200   1.200

     atomic species   valence    mass     pseudopotential
        Ni            18.00    58.69300     Ni( 1.00)
        Co            17.00    58.93300     Co( 1.00)

     Starting magnetic structure 
     atomic species   magnetization
        Ni           0.000
        Co           0.000

     No symmetry found



   Cartesian axes

     site n.     atom                  positions (alat units)
         1           Ni  tau(   1) = (   0.6531537   0.6531548   0.6531547  )
         2           Co  tau(   2) = (  -0.0000000  -0.0000000   0.0000000  )

     number of k points=   504  Gaussian smearing, width (Ry)=  0.0100

     Number of k-points >= 100: set verbosity='high' to print them.

     Dense  grid:    98741 G-vectors     FFT dimensions: (  72,  72,  72)

     Smooth grid:    19027 G-vectors     FFT dimensions: (  40,  40,  40)

     Estimated max dynamical RAM per process >     112.66 MB

     Estimated total dynamical RAM >       1.32 GB

     Check: negative core charge=   -0.000012
     Generating pointlists ...

     Initial potential from superposition of free atoms

     starting charge   31.99999, renormalised to   35.00000
     Starting wfcs are   26 randomized atomic wfcs

     total cpu time spent up to now is     1756.5 secs

     Self-consistent Calculation

     iteration #  1     ecut=    90.00 Ry     beta= 0.20
     Davidson diagonalization with overlap
     c_bands:  1 eigenvalues not converged
     c_bands:  2 eigenvalues not converged
     c_bands:  1 eigenvalues not converged
     c_bands:  1 eigenvalues not converged
     c_bands:  1 eigenvalues not converged
     c_bands:  1 eigenvalues not converged
     c_bands:  2 eigenvalues not converged
     c_bands:  1 eigenvalues not converged
     c_bands:  1 eigenvalues not converged
     c_bands:  1 eigenvalues not converged
     c_bands:  1 eigenvalues not converged
     c_bands:  1 eigenvalues not converged
     c_bands:  1 eigenvalues not converged
     c_bands:  1 eigenvalues not converged
     c_bands:  1 eigenvalues not converged
     c_bands:  1 eigenvalues not converged
     c_bands:  1 eigenvalues not converged
     c_bands:  1 eigenvalues not converged
     c_bands:  1 eigenvalues not converged
     c_bands:  1 eigenvalues not converged
     c_bands:  1 eigenvalues not converged
     c_bands:  1 eigenvalues not converged
     c_bands:  1 eigenvalues not converged
     c_bands:  1 eigenvalues not converged
     c_bands:  1 eigenvalues not converged
     c_bands:  1 eigenvalues not converged
     c_bands:  1 eigenvalues not converged
     c_bands:  1 eigenvalues not converged
     c_bands:  1 eigenvalues not converged
     c_bands:  1 eigenvalues not converged
     c_bands:  1 eigenvalues not converged
     c_bands:  2 eigenvalues not converged
     c_bands:  2 eigenvalues not converged
     c_bands:  2 eigenvalues not converged
     c_bands:  2 eigenvalues not converged
     c_bands:  2 eigenvalues not converged
     c_bands:  1 eigenvalues not converged
     c_bands:  1 eigenvalues not converged
     c_bands:  2 eigenvalues not converged
     c_bands:  2 eigenvalues not converged
     c_bands:  1 eigenvalues not converged
     c_bands:  1 eigenvalues not converged
     c_bands:  1 eigenvalues not converged
     c_bands:  1 eigenvalues not converged
     c_bands:  1 eigenvalues not converged
     c_bands:  1 eigenvalues not converged
     c_bands:  1 eigenvalues not converged
     c_bands:  1 eigenvalues not converged
     c_bands:  1 eigenvalues not converged
     c_bands:  1 eigenvalues not converged
     c_bands:  1 eigenvalues not converged
     c_bands:  1 eigenvalues not converged
     c_bands:  1 eigenvalues not converged
     c_bands:  1 eigenvalues not converged
     c_bands:  1 eigenvalues not converged
     c_bands:  1 eigenvalues not converged
     c_bands:  1 eigenvalues not converged
     c_bands:  1 eigenvalues not converged
     c_bands:  1 eigenvalues not converged
     c_bands:  1 eigenvalues not converged
     c_bands:  1 eigenvalues not converged
     c_bands:  2 eigenvalues not converged
     c_bands:  1 eigenvalues not converged
     c_bands:  2 eigenvalues not converged
     c_bands:  2 eigenvalues not converged
     c_bands:  2 eigenvalues not converged
     ethr =  1.00E-06,  avg # of iterations = 13.1

     total cpu time spent up to now is     1809.3 secs

     total energy              =    -637.45923780 Ry
     estimated scf accuracy    <      40.98412348 Ry

     total magnetization       =     0.00 Bohr mag/cell
     absolute magnetization    =     0.00 Bohr mag/cell

     iteration #  2     ecut=    90.00 Ry     beta= 0.20
     Davidson diagonalization with overlap
     ethr =  1.00E-02,  avg # of iterations =  3.4

     total cpu time spent up to now is     1830.5 secs

     total energy              =    -639.93818524 Ry
     estimated scf accuracy    <       7.76981431 Ry

     total magnetization       =     0.00 Bohr mag/cell
     absolute magnetization    =     0.00 Bohr mag/cell

     iteration #  3     ecut=    90.00 Ry     beta= 0.20
     Davidson diagonalization with overlap
     ethr =  1.00E-02,  avg # of iterations =  2.3

     total cpu time spent up to now is     1845.8 secs

     total energy              =    -640.96431530 Ry
     estimated scf accuracy    <      13.21702709 Ry

     total magnetization       =     0.00 Bohr mag/cell
     absolute magnetization    =     0.00 Bohr mag/cell

     iteration #  4     ecut=    90.00 Ry     beta= 0.20
     Davidson diagonalization with overlap
     ethr =  1.00E-02,  avg # of iterations =  1.8

     total cpu time spent up to now is     1859.0 secs

     total energy              =    -641.58709179 Ry
     estimated scf accuracy    <       0.15651332 Ry

     total magnetization       =     0.00 Bohr mag/cell
     absolute magnetization    =     0.00 Bohr mag/cell

     iteration #  5     ecut=    90.00 Ry     beta= 0.20
     Davidson diagonalization with overlap
     ethr =  4.47E-04,  avg # of iterations =  2.2

     total cpu time spent up to now is     1874.4 secs

     total energy              =    -641.62410282 Ry
     estimated scf accuracy    <       0.07270311 Ry

     total magnetization       =     0.00 Bohr mag/cell
     absolute magnetization    =     0.00 Bohr mag/cell

     iteration #  6     ecut=    90.00 Ry     beta= 0.20
     Davidson diagonalization with overlap
     ethr =  2.08E-04,  avg # of iterations =  1.0

     total cpu time spent up to now is     1886.7 secs

     total energy              =    -641.62483331 Ry
     estimated scf accuracy    <       0.00970232 Ry

     total magnetization       =     0.00 Bohr mag/cell
     absolute magnetization    =     0.00 Bohr mag/cell

     iteration #  7     ecut=    90.00 Ry     beta= 0.20
     Davidson diagonalization with overlap
     ethr =  2.77E-05,  avg # of iterations =  2.0

     total cpu time spent up to now is     1902.1 secs

     total energy              =    -641.62452920 Ry
     estimated scf accuracy    <       0.05455995 Ry

     total magnetization       =     0.00 Bohr mag/cell
     absolute magnetization    =     0.00 Bohr mag/cell

     iteration #  8     ecut=    90.00 Ry     beta= 0.20
     Davidson diagonalization with overlap
     ethr =  2.77E-05,  avg # of iterations =  1.8

     total cpu time spent up to now is     1915.5 secs

     total energy              =    -641.62791621 Ry
     estimated scf accuracy    <       0.00291515 Ry

     total magnetization       =     0.00 Bohr mag/cell
     absolute magnetization    =     0.00 Bohr mag/cell

     iteration #  9     ecut=    90.00 Ry     beta= 0.20
     Davidson diagonalization with overlap
     ethr =  8.33E-06,  avg # of iterations =  1.0

     total cpu time spent up to now is     1927.8 secs

     total energy              =    -641.62799546 Ry
     estimated scf accuracy    <       0.00170089 Ry

     total magnetization       =     0.00 Bohr mag/cell
     absolute magnetization    =     0.00 Bohr mag/cell

     iteration # 10     ecut=    90.00 Ry     beta= 0.20
     Davidson diagonalization with overlap
     ethr =  4.86E-06,  avg # of iterations =  1.0

     total cpu time spent up to now is     1940.1 secs

     total energy              =    -641.62785586 Ry
     estimated scf accuracy    <       0.00128588 Ry

     total magnetization       =     0.00 Bohr mag/cell
     absolute magnetization    =     0.00 Bohr mag/cell

     iteration # 11     ecut=    90.00 Ry     beta= 0.20
     Davidson diagonalization with overlap
     ethr =  3.67E-06,  avg # of iterations =  1.0

     total cpu time spent up to now is     1952.4 secs

     total energy              =    -641.62792969 Ry
     estimated scf accuracy    <       0.00000254 Ry

     total magnetization       =     0.00 Bohr mag/cell
     absolute magnetization    =     0.00 Bohr mag/cell

     iteration # 12     ecut=    90.00 Ry     beta= 0.20
     Davidson diagonalization with overlap
     ethr =  7.27E-09,  avg # of iterations =  2.6

     total cpu time spent up to now is     1968.0 secs

     total energy              =    -641.62793001 Ry
     estimated scf accuracy    <       0.00000302 Ry

     total magnetization       =     0.00 Bohr mag/cell
     absolute magnetization    =     0.00 Bohr mag/cell

     iteration # 13     ecut=    90.00 Ry     beta= 0.20
     Davidson diagonalization with overlap
     ethr =  7.27E-09,  avg # of iterations =  1.0

     total cpu time spent up to now is     1980.3 secs

     total energy              =    -641.62793022 Ry
     estimated scf accuracy    <       0.00000048 Ry

     total magnetization       =     0.00 Bohr mag/cell
     absolute magnetization    =     0.00 Bohr mag/cell

     iteration # 14     ecut=    90.00 Ry     beta= 0.20
     Davidson diagonalization with overlap
     ethr =  1.36E-09,  avg # of iterations =  1.2

     total cpu time spent up to now is     1992.7 secs

     total energy              =    -641.62793030 Ry
     estimated scf accuracy    <          8.6E-09 Ry

     total magnetization       =     0.00 Bohr mag/cell
     absolute magnetization    =     0.00 Bohr mag/cell

     iteration # 15     ecut=    90.00 Ry     beta= 0.20
     Davidson diagonalization with overlap
     ethr =  2.45E-11,  avg # of iterations =  2.0

     total cpu time spent up to now is     2009.2 secs

     total energy              =    -641.62793031 Ry
     estimated scf accuracy    <       0.00000002 Ry

     total magnetization       =     0.00 Bohr mag/cell
     absolute magnetization    =     0.00 Bohr mag/cell

     iteration # 16     ecut=    90.00 Ry     beta= 0.20
     Davidson diagonalization with overlap
     ethr =  2.45E-11,  avg # of iterations =  2.0

     total cpu time spent up to now is     2026.6 secs

     total energy              =    -641.62793033 Ry
     estimated scf accuracy    <       0.00000001 Ry

     total magnetization       =     0.00 Bohr mag/cell
     absolute magnetization    =     0.00 Bohr mag/cell

     iteration # 17     ecut=    90.00 Ry     beta= 0.20
     Davidson diagonalization with overlap
     ethr =  2.45E-11,  avg # of iterations =  1.0

     total cpu time spent up to now is     2039.3 secs

     total energy              =    -641.62793034 Ry
     estimated scf accuracy    <          6.9E-09 Ry

     total magnetization       =     0.00 Bohr mag/cell
     absolute magnetization    =     0.00 Bohr mag/cell

     iteration # 18     ecut=    90.00 Ry     beta= 0.20
     Davidson diagonalization with overlap
     ethr =  1.97E-11,  avg # of iterations =  2.0

     total cpu time spent up to now is     2055.3 secs

     total energy              =    -641.62793034 Ry
     estimated scf accuracy    <       0.00000004 Ry

     total magnetization       =     0.00 Bohr mag/cell
     absolute magnetization    =     0.00 Bohr mag/cell

     iteration # 19     ecut=    90.00 Ry     beta= 0.20
     Davidson diagonalization with overlap
     ethr =  1.97E-11,  avg # of iterations =  1.1

     total cpu time spent up to now is     2068.2 secs

     total energy              =    -641.62793035 Ry
     estimated scf accuracy    <       0.00000001 Ry

     total magnetization       =     0.00 Bohr mag/cell
     absolute magnetization    =     0.00 Bohr mag/cell

     iteration # 20     ecut=    90.00 Ry     beta= 0.20
     Davidson diagonalization with overlap
     ethr =  1.97E-11,  avg # of iterations =  1.1

     total cpu time spent up to now is     2081.0 secs

     total energy              =    -641.62793035 Ry
     estimated scf accuracy    <          2.5E-09 Ry

     total magnetization       =     0.00 Bohr mag/cell
     absolute magnetization    =     0.00 Bohr mag/cell

     iteration # 21     ecut=    90.00 Ry     beta= 0.20
     Davidson diagonalization with overlap
     ethr =  7.11E-12,  avg # of iterations =  1.5

     total cpu time spent up to now is     2094.3 secs

     total energy              =    -641.62793035 Ry
     estimated scf accuracy    <          1.1E-10 Ry

     total magnetization       =     0.00 Bohr mag/cell
     absolute magnetization    =     0.00 Bohr mag/cell

     iteration # 22     ecut=    90.00 Ry     beta= 0.20
     Davidson diagonalization with overlap
     ethr =  3.17E-13,  avg # of iterations =  2.0

     total cpu time spent up to now is     2111.1 secs

     total energy              =    -641.62793035 Ry
     estimated scf accuracy    <          1.3E-10 Ry

     total magnetization       =     0.00 Bohr mag/cell
     absolute magnetization    =     0.00 Bohr mag/cell

     iteration # 23     ecut=    90.00 Ry     beta= 0.20
     Davidson diagonalization with overlap
     ethr =  3.17E-13,  avg # of iterations =  2.0

     total cpu time spent up to now is     2127.9 secs

     total energy              =    -641.62793035 Ry
     estimated scf accuracy    <          1.4E-10 Ry

     total magnetization       =     0.00 Bohr mag/cell
     absolute magnetization    =     0.00 Bohr mag/cell

     iteration # 24     ecut=    90.00 Ry     beta= 0.20
     Davidson diagonalization with overlap
     ethr =  3.17E-13,  avg # of iterations =  2.0

     Magnetic moment per site:
     atom:    1    charge:   14.8521    magn:   -0.0000    constr:    0.0000
     atom:    2    charge:   13.7244    magn:   -0.0000    constr:    0.0000

     total cpu time spent up to now is     2142.8 secs

     End of self-consistent calculation

     Number of k-points >= 100: set verbosity='high' to print the bands.

     the Fermi energy is    15.5904 ev

!    total energy              =    -641.62793035 Ry
     estimated scf accuracy    <          4.2E-12 Ry
     smearing contrib. (-TS)   =      -0.00390513 Ry
     internal energy E=F+TS    =    -641.62402522 Ry

     The total energy is F=E-TS. E is the sum of the following terms:
     one-electron contribution =    -387.35517007 Ry
     hartree contribution      =     213.29321743 Ry
     xc contribution           =     -68.15471835 Ry
     ewald contribution        =    -399.40735424 Ry

     total magnetization       =    -0.00 Bohr mag/cell
     absolute magnetization    =     0.00 Bohr mag/cell

     convergence has been achieved in  24 iterations

     Forces acting on atoms (cartesian axes, Ry/au):

     atom    1 type  1   force =     0.00000002   -0.00000003    0.00000007
     atom    2 type  2   force =    -0.00000002    0.00000003   -0.00000007

     Total force =     0.000000     Total SCF correction =     0.000000
     SCF correction compared to forces is large: reduce conv_thr to get better values


     Computing stress (Cartesian axis) and pressure

          total   stress  (Ry/bohr**3)                   (kbar)     P=        3.16
   0.00002149   0.00000000   0.00000001            3.16        0.00        0.00
   0.00000000   0.00002148   0.00000001            0.00        3.16        0.00
   0.00000001   0.00000001   0.00002148            0.00        0.00        3.16


     init_run     :      9.96s CPU     12.19s WALL (       2 calls)
     electrons    :   2017.44s CPU   2095.96s WALL (      10 calls)
     update_pot   :      2.79s CPU      2.81s WALL (       8 calls)
     forces       :     10.09s CPU     10.39s WALL (      10 calls)
     stress       :     22.15s CPU     22.33s WALL (      10 calls)

     Called by init_run:
     wfcinit      :      8.43s CPU      9.42s WALL (       2 calls)
     potinit      :      0.40s CPU      0.53s WALL (       2 calls)
     hinit0       :      0.94s CPU      1.84s WALL (       2 calls)

     Called by electrons:
     c_bands      :   1727.80s CPU   1793.42s WALL (     216 calls)
     sum_band     :    271.42s CPU    283.65s WALL (     216 calls)
     v_of_rho     :      6.18s CPU      6.52s WALL (     224 calls)
     newd         :     11.94s CPU     12.12s WALL (     224 calls)
     mix_rho      :      0.40s CPU      0.55s WALL (     216 calls)

     Called by c_bands:
     init_us_2    :     19.10s CPU     19.81s WALL (  457632 calls)
     cegterg      :   1674.57s CPU   1738.95s WALL (  217728 calls)

     Called by *egterg:
     cdiaghg      :    276.52s CPU    284.51s WALL (  621109 calls)
     h_psi        :   1079.79s CPU   1126.59s WALL (  633205 calls)
     s_psi        :     51.87s CPU     54.31s WALL (  633205 calls)
     g_psi        :      3.54s CPU      3.63s WALL (  413461 calls)

     Called by h_psi:
     h_psi:calbec :     70.28s CPU     74.08s WALL (  633205 calls)
     vloc_psi     :    953.83s CPU    994.17s WALL (  633205 calls)
     add_vuspsi   :     52.25s CPU     54.94s WALL (  633205 calls)

     General routines
     calbec       :    102.87s CPU    108.32s WALL (  901333 calls)
     fft          :      2.60s CPU      3.38s WALL (    5992 calls)
     ffts         :      0.09s CPU      0.12s WALL (     880 calls)
     fftw         :   1064.07s CPU   1110.44s WALL (28112462 calls)
     interpolate  :      0.27s CPU      0.32s WALL (     448 calls)

     Parallel routines
     fft_scatt_xy :    128.91s CPU    134.17s WALL (28119334 calls)
     fft_scatt_yz :    383.51s CPU    401.20s WALL (28119334 calls)

     PWSCF        :  34m24.39s CPU  35m48.94s WALL


   This run was terminated on:  19:25:36   8Dec2021            

=------------------------------------------------------------------------------=
   JOB DONE.
=------------------------------------------------------------------------------=
Note: The following floating-point exceptions are signalling: IEEE_UNDERFLOW_FLAG IEEE_DENORMAL
Note: The following floating-point exceptions are signalling: IEEE_UNDERFLOW_FLAG IEEE_DENORMAL
Note: The following floating-point exceptions are signalling: IEEE_UNDERFLOW_FLAG IEEE_DENORMAL
Note: The following floating-point exceptions are signalling: IEEE_UNDERFLOW_FLAG IEEE_DENORMAL
Note: The following floating-point exceptions are signalling: IEEE_UNDERFLOW_FLAG IEEE_DENORMAL
Note: The following floating-point exceptions are signalling: IEEE_UNDERFLOW_FLAG IEEE_DENORMAL
Note: The following floating-point exceptions are signalling: IEEE_UNDERFLOW_FLAG IEEE_DENORMAL
Note: The following floating-point exceptions are signalling: IEEE_UNDERFLOW_FLAG IEEE_DENORMAL
Note: The following floating-point exceptions are signalling: IEEE_UNDERFLOW_FLAG IEEE_DENORMAL
Note: The following floating-point exceptions are signalling: IEEE_UNDERFLOW_FLAG IEEE_DENORMAL
Note: The following floating-point exceptions are signalling: IEEE_UNDERFLOW_FLAG IEEE_DENORMAL
Note: The following floating-point exceptions are signalling: IEEE_UNDERFLOW_FLAG IEEE_DENORMAL
