LAMMPS data file via write_data, version 10 Mar 2021, timestep = 0
1 atoms
1 atom types
1 atoms
1 atom types
0.0 2.46365448900377 xlo xhi
0.0 2.13360668316627 ylo yhi
0.0 2.35378701797516 zlo zhi
-1.2318292109894 7.79471776882737e-06 9.01431236690911e-06 xy xz yz

Masses

1 55.84500
Atoms

1 1	0.0000000000        0.0000000000        0.0000000000
