 # File generated with Atomsk by kevin on 2022-03-20 17:48:03
 
           8  atoms
           2  atom types
 
      0.000000000000       4.584263500000  xlo xhi
      0.000000000000       4.607300000000  ylo yhi
      0.000000000000       4.607300000000  zlo zhi
 
Masses
 
            1   58.93319500             # Co
            2   0.00000000              # XX
 
Atoms # atomic
 
         1    1        0.001509158075      -0.001015991092      -0.000975954574
         2    5        2.289896933037       2.312720606269       2.308771327050
         3    1        0.001509158075       2.302634008908       2.302674045426
         4    5        2.289896933037       0.009070606269       0.005121327050
         5    1        2.293640908075       2.302634008908      -0.000975954574
         6    5        0.001509158075      -0.001015991092       2.302674045426
         7    1        2.293640908075      -0.001015991092       2.302674045426
         8    5        0.001509158075       2.302634008908      -0.000975954574
