 # File generated with Atomsk by kevin on 2022-03-20 17:48:03
 
           8  atoms
           2  atom types
 
      0.000000000000       4.607300000000  xlo xhi
      0.000000000000       4.607300000000  ylo yhi
      0.000000000000       4.607300000000  zlo zhi
     -0.023036500000       0.000000000000       0.000000000000  xy xz yz
 
Masses
 
            1   58.93319500             # Co
            2   0.00000000              # XX
 
Atoms # atomic
 
         1    1        0.008048542715       0.005155454854       0.004783093589
         2    5        2.287965555656       2.306851381419       2.306130734720
         3    1       -0.003469707285       2.308805454854       2.308433093589
         4    5        2.299483805656       0.003201381419       0.002480734720
         5    1        2.300180292715       2.308805454854       0.004783093589
         6    5        0.008048542715       0.005155454854       2.308433093589
         7    1        2.311698542715       0.005155454854       2.308433093589
         8    5       -0.003469707285       2.308805454854       0.004783093589
