 # File generated with Atomsk by kevin on 2022-03-20 17:48:03
 
           8  atoms
           2  atom types
 
      0.000000000000       4.607300000000  xlo xhi
      0.000000000000       4.607300000000  ylo yhi
      0.000000000000       4.607300000000  zlo zhi
      0.000000000000      -0.023036500000       0.000000000000  xy xz yz
 
Masses
 
            1   58.93319500             # Co
            2   0.00000000              # XX
 
Atoms # atomic
 
         1    1       -0.004677446600      -0.001409533136      -0.006661690019
         2    5        2.298156038080       2.301190821271       2.296815533213
         3    1       -0.016195696600       2.302240466864       2.296988309981
         4    5        2.309674288080      -0.002459178729      -0.006834466787
         5    1        2.298972553400       2.302240466864      -0.006661690019
         6    5       -0.016195696600      -0.001409533136       2.296988309981
         7    1        2.287454303400      -0.001409533136       2.296988309981
         8    5       -0.004677446600       2.302240466864      -0.006661690019
