 # File generated with Atomsk by kevin on 2022-03-20 17:48:03
 
           8  atoms
           2  atom types
 
      0.000000000000       4.607300000000  xlo xhi
      0.000000000000       4.607300000000  ylo yhi
      0.000000000000       4.607300000000  zlo zhi
      0.000000000000       0.000000000000      -0.023036500000  xy xz yz
 
Masses
 
            1   58.93319500             # Co
            2   0.00000000              # XX
 
Atoms # atomic
 
         1    1       -0.006402094847      -0.007221718479       0.004216223995
         2    5        2.311575165120       2.286797353699       2.301551789712
         3    1       -0.006402094847       2.284910031521       2.307866223995
         4    5        2.311575165120      -0.005334396301      -0.002098210288
         5    1        2.297247905153       2.296428281521       0.004216223995
         6    5       -0.006402094847      -0.018739968479       2.307866223995
         7    1        2.297247905153      -0.018739968479       2.307866223995
         8    5       -0.006402094847       2.296428281521       0.004216223995
