 # File generated with Atomsk by kevin on 2022-03-20 17:48:03
 
           8  atoms
           2  atom types
 
      0.000000000000       4.607300000000  xlo xhi
      0.000000000000       4.607300000000  ylo yhi
      0.000000000000       4.584263500000  zlo zhi
 
Masses
 
            1   58.93319500             # Co
            2   0.00000000              # XX
 
Atoms # atomic
 
         1    1        0.001667698518       0.002125062421       0.007718792756
         2    5        2.297155141118       2.304791781889       2.297196074904
         3    1        0.001667698518       2.305775062421       2.299850542756
         4    5        2.297155141118       0.001141781889       0.005064324904
         5    1        2.305317698518       2.305775062421       0.007718792756
         6    5        0.001667698518       0.002125062421       2.299850542756
         7    1        2.305317698518       0.002125062421       2.299850542756
         8    5        0.001667698518       2.305775062421       0.007718792756
