 # File generated with Atomsk by kevin on 2022-03-20 17:48:03
 
           8  atoms
           2  atom types
 
      0.000000000000       4.607300000000  xlo xhi
      0.000000000000       4.584263500000  ylo yhi
      0.000000000000       4.607300000000  zlo zhi
 
Masses
 
            1   58.93319500             # Co
            2   0.00000000              # XX
 
Atoms # atomic
 
         1    1       -0.002134844425      -0.002690357532      -0.001898372277
         2    5        2.307881093062       2.295999934390       2.308270344510
         3    1       -0.002134844425       2.289441392468       2.301751627723
         4    5        2.307881093062       0.003868184390       0.004620344510
         5    1        2.301515155575       2.289441392468      -0.001898372277
         6    5       -0.002134844425      -0.002690357532       2.301751627723
         7    1        2.301515155575      -0.002690357532       2.301751627723
         8    5       -0.002134844425       2.289441392468      -0.001898372277
