 # File generated with Atomsk by kevin on 2022-03-20 17:48:03
 
           8  atoms
           2  atom types
 
      0.000000000000       4.607300000000  xlo xhi
      0.000000000000       4.607300000000  ylo yhi
      0.000000000000       4.607300000000  zlo zhi
      0.000000000000       0.023036500000       0.000000000000  xy xz yz
 
Masses
 
            1   58.93319500             # Co
            2   0.00000000              # XX
 
Atoms # atomic
 
         1    1       -0.000286457999      -0.001339674291       0.002934208356
         2    5        2.308678270960       2.310288523696       2.295980589067
         3    1        0.011231792001       2.302310325709       2.306584208356
         4    5        2.297160020960       0.006638523696      -0.007669410933
         5    1        2.303363542001       2.302310325709       0.002934208356
         6    5        0.011231792001      -0.001339674291       2.306584208356
         7    1        2.314881792001      -0.001339674291       2.306584208356
         8    5       -0.000286457999       2.302310325709       0.002934208356
