 # File generated with Atomsk by kevin on 2022-03-20 17:48:01
 
           8  atoms
           2  atom types
 
      0.000000000000       4.607300000000  xlo xhi
      0.000000000000       4.607300000000  ylo yhi
      0.000000000000       4.630336500000  zlo zhi
 
Masses
 
            1   58.93319500             # Co
            2   0.00000000              # XX
 
Atoms # atomic
 
         1    1       -0.003382210561      -0.004432930735      -0.003637146541
         2    5        2.301680527620       2.297502470552       2.318784611667
         3    1       -0.003382210561       2.299217069265       2.311531103459
         4    5        2.301680527620      -0.006147529448       0.003616361667
         5    1        2.300267789439       2.299217069265      -0.003637146541
         6    5       -0.003382210561      -0.004432930735       2.311531103459
         7    1        2.300267789439      -0.004432930735       2.311531103459
         8    5       -0.003382210561       2.299217069265      -0.003637146541
