 # File generated with Atomsk by kevin on 2022-03-20 17:45:18
 
           8  atoms
           2  atom types
 
      0.000000000000       4.607300000000  xlo xhi
      0.000000000000       4.607300000000  ylo yhi
      0.000000000000       4.607300000000  zlo zhi
      0.000000000000       0.000000000000       0.023036500000  xy xz yz
 
Masses
 
            1   58.93319500             # Co
            2   0.00000000              # XX
 
Atoms # atomic
 
         1    1       -0.001378205995      -0.004727618358       0.002045200149
         2    5        2.307441536219       2.315727975604       2.300456635784
         3    1       -0.001378205995       2.310440631642       2.305695200149
         4    5        2.307441536219       0.000559725604      -0.003193364216
         5    1        2.302271794005       2.298922381642       0.002045200149
         6    5       -0.001378205995       0.006790631642       2.305695200149
         7    1        2.302271794005       0.006790631642       2.305695200149
         8    5       -0.001378205995       2.298922381642       0.002045200149
