 # File generated with Atomsk by kevin on 2022-03-20 17:48:03
 
           8  atoms
           2  atom types
 
      0.000000000000       4.607300000000  xlo xhi
      0.000000000000       4.607300000000  ylo yhi
      0.000000000000       4.607300000000  zlo zhi
      0.023036500000       0.000000000000       0.000000000000  xy xz yz
 
Masses
 
            1   58.93319500             # Co
            2   0.00000000              # XX
 
Atoms # atomic
 
         1    1        0.006983504272      -0.003178449589      -0.004689207005
         2    5        2.321088469573       2.299513713193       2.312025426745
         3    1        0.018501754272       2.300471550411       2.298960792995
         4    5        2.309570219573      -0.004136286807       0.008375426745
         5    1        2.322151754272       2.300471550411      -0.004689207005
         6    5        0.006983504272      -0.003178449589       2.298960792995
         7    1        2.310633504272      -0.003178449589       2.298960792995
         8    5        0.018501754272       2.300471550411      -0.004689207005
