
     Program PWSCF v.6.7MaX starts on 21Mar2022 at 13:41:28 

     This program is part of the open-source Quantum ESPRESSO suite
     for quantum simulation of materials; please cite
         "P. Giannozzi et al., J. Phys.:Condens. Matter 21 395502 (2009);
         "P. Giannozzi et al., J. Phys.:Condens. Matter 29 465901 (2017);
          URL http://www.quantum-espresso.org", 
     in publications or presentations arising from this work. More details at
     http://www.quantum-espresso.org/quote

     Parallel version (MPI), running on    24 processors

     MPI processes distributed on     1 nodes
     R & G space division:  proc/nbgrp/npool/nimage =      24
     Reading input from /home/kevin/QE_CoCrFeMnNi/CoCrFeMnNi/Opt/binary/Opt-B1-CoNi/Mix/elastic/Chg_1-B1-CoNi.in

     Current dimensions of program PWSCF are:
     Max number of different atomic species (ntypx) = 10
     Max number of k-points (npk) =  40000
     Max angular momentum in pseudopotentials (lmaxx) =  3

     Subspace diagonalization in iterative solution of the eigenvalue problem:
     a serial algorithm will be used

     Found symmetry operation: I + (  0.0000 -0.5000 -0.5000)
     This is a supercell, fractional translations are disabled

     Parallelization info
     --------------------
     sticks:   dense  smooth     PW     G-vecs:    dense   smooth      PW
     Min         273      90     25                16561     3188     481
     Max         274      91     27                16563     3193     484
     Sum        6553    2181    617               397487    76581   11577



     bravais-lattice index     =            0
     lattice parameter (alat)  =       8.7501  a.u.
     unit-cell volume          =     663.2880 (a.u.)^3
     number of atoms/cell      =            8
     number of atomic types    =            2
     number of electrons       =       140.00
     number of Kohn-Sham states=           84
     kinetic-energy cutoff     =      90.0000  Ry
     charge density cutoff     =    1080.0000  Ry
     scf convergence threshold =      1.0E-08
     mixing beta               =       0.2000
     number of iterations used =            8  plain     mixing
     energy convergence thresh.=      1.0E-05
     force convergence thresh. =      1.0E-04
     Exchange-correlation= SLA  PW   PBE  PBE
                           (   1   4   3   4   0   0   0)
     nstep                     =          100


     celldm(1)=   8.750068  celldm(2)=   0.000000  celldm(3)=   0.000000
     celldm(4)=   0.000000  celldm(5)=   0.000000  celldm(6)=   0.000000

     crystal axes: (cart. coord. in units of alat)
               a(1) = (   1.000000   0.000000   0.000000 )  
               a(2) = (   0.000000   0.995025   0.000000 )  
               a(3) = (   0.000000   0.000000   0.995025 )  

     reciprocal axes: (cart. coord. in units 2 pi/alat)
               b(1) = (  1.000000  0.000000  0.000000 )  
               b(2) = (  0.000000  1.005000  0.000000 )  
               b(3) = (  0.000000  0.000000  1.005000 )  


     PseudoPot. # 1 for Ni read from file:
     /opt/QEpot/SSSP_efficiency_pseudos/ni_pbe_v1.4.uspp.F.UPF
     MD5 check sum: 1ee80287db30b12d2bc1f57a5b5d6409
     Pseudo is Ultrasoft + core correction, Zval = 18.0
     Generated by new atomic code, or converted to UPF format
     Using radial grid of  865 points,  6 beta functions with: 
                l(1) =   0
                l(2) =   0
                l(3) =   1
                l(4) =   1
                l(5) =   2
                l(6) =   2
     Q(r) pseudized with 10 coefficients,  rinner =    0.980   0.980   0.980
                                                       0.980   0.980

     PseudoPot. # 2 for Co read from file:
     /opt/QEpot/SSSP_efficiency_pseudos/Co_pbe_v1.2.uspp.F.UPF
     MD5 check sum: 5f91765df6ddd3222702df6e7b74a16d
     Pseudo is Ultrasoft + core correction, Zval = 17.0
     Generated by new atomic code, or converted to UPF format
     Using radial grid of  863 points,  6 beta functions with: 
                l(1) =   0
                l(2) =   0
                l(3) =   1
                l(4) =   1
                l(5) =   2
                l(6) =   2
     Q(r) pseudized with  8 coefficients,  rinner =    1.200   1.200   1.200
                                                       1.200   1.200

     atomic species   valence    mass     pseudopotential
        Ni            18.00    58.69300     Ni( 1.00)
        Co            17.00    58.93300     Co( 1.00)

     Starting magnetic structure 
     atomic species   magnetization
        Ni           0.000
        Co           0.000

     No symmetry found



   Cartesian axes

     site n.     atom                  positions (alat units)
         1           Ni  tau(   1) = (   0.0000572   0.4986029   0.0001502  )
         2           Co  tau(   2) = (   0.5000572   0.0010904   0.4976627  )
         3           Ni  tau(   3) = (   0.0000572   0.0010904   0.4976627  )
         4           Co  tau(   4) = (   0.5000572   0.4986029   0.0001502  )
         5           Ni  tau(   5) = (   0.5004562  -0.0011018   0.0017596  )
         6           Co  tau(   6) = (   0.0000572   0.4986029   0.4976627  )
         7           Ni  tau(   7) = (   0.5004562   0.4964106   0.4992720  )
         8           Co  tau(   8) = (   0.0000572   0.0010904   0.0001502  )

     number of k points=   112  Gaussian smearing, width (Ry)=  0.0100

     Number of k-points >= 100: set verbosity='high' to print them.

     Dense  grid:   397487 G-vectors     FFT dimensions: (  96,  96,  96)

     Smooth grid:    76581 G-vectors     FFT dimensions: (  54,  54,  54)

     Estimated max dynamical RAM per process >     188.39 MB

     Estimated total dynamical RAM >       4.42 GB

     Check: negative core charge=   -0.000012
     Generating pointlists ...
     new r_m :   0.2043 (alat units)  1.7878 (a.u.) for type    1
     new r_m :   0.2043 (alat units)  1.7878 (a.u.) for type    2

     Initial potential from superposition of free atoms

     starting charge  127.99997, renormalised to  140.00000
     Starting wfcs are  104 randomized atomic wfcs

     total cpu time spent up to now is       22.0 secs

     Self-consistent Calculation

     iteration #  1     ecut=    90.00 Ry     beta= 0.20
     Davidson diagonalization with overlap
     ethr =  1.00E-02,  avg # of iterations =  3.1

     total cpu time spent up to now is      102.5 secs

     total energy              =   -2550.46302762 Ry
     estimated scf accuracy    <     161.94253923 Ry

     total magnetization       =     0.00 Bohr mag/cell
     absolute magnetization    =     0.01 Bohr mag/cell

     iteration #  2     ecut=    90.00 Ry     beta= 0.20
     Davidson diagonalization with overlap
     ethr =  1.00E-02,  avg # of iterations =  4.6

     total cpu time spent up to now is      191.0 secs

     total energy              =   -2559.45837641 Ry
     estimated scf accuracy    <      32.58649973 Ry

     total magnetization       =    -0.00 Bohr mag/cell
     absolute magnetization    =     0.01 Bohr mag/cell

     iteration #  3     ecut=    90.00 Ry     beta= 0.20
     Davidson diagonalization with overlap
     ethr =  1.00E-02,  avg # of iterations =  3.2

     total cpu time spent up to now is      254.1 secs

     total energy              =   -2563.89747793 Ry
     estimated scf accuracy    <      53.22968119 Ry

     total magnetization       =     0.00 Bohr mag/cell
     absolute magnetization    =     0.00 Bohr mag/cell

     iteration #  4     ecut=    90.00 Ry     beta= 0.20
     Davidson diagonalization with overlap
     ethr =  1.00E-02,  avg # of iterations =  2.1

     total cpu time spent up to now is      306.2 secs

     total energy              =   -2566.32468771 Ry
     estimated scf accuracy    <       0.77538219 Ry

     total magnetization       =     0.00 Bohr mag/cell
     absolute magnetization    =     0.00 Bohr mag/cell

     iteration #  5     ecut=    90.00 Ry     beta= 0.20
     Davidson diagonalization with overlap
     ethr =  5.54E-04,  avg # of iterations =  2.6

     total cpu time spent up to now is      365.7 secs

     total energy              =   -2566.52911390 Ry
     estimated scf accuracy    <       0.68253611 Ry

     total magnetization       =    -0.00 Bohr mag/cell
     absolute magnetization    =     0.00 Bohr mag/cell

     iteration #  6     ecut=    90.00 Ry     beta= 0.20
     Davidson diagonalization with overlap
     ethr =  4.88E-04,  avg # of iterations =  1.1

     total cpu time spent up to now is      409.8 secs

     total energy              =   -2566.50536338 Ry
     estimated scf accuracy    <       0.39162514 Ry

     total magnetization       =    -0.00 Bohr mag/cell
     absolute magnetization    =     0.00 Bohr mag/cell

     iteration #  7     ecut=    90.00 Ry     beta= 0.20
     Davidson diagonalization with overlap
     ethr =  2.80E-04,  avg # of iterations =  1.2

     total cpu time spent up to now is      454.5 secs

     total energy              =   -2566.50534195 Ry
     estimated scf accuracy    <       0.07638802 Ry

     total magnetization       =    -0.00 Bohr mag/cell
     absolute magnetization    =     0.00 Bohr mag/cell

     iteration #  8     ecut=    90.00 Ry     beta= 0.20
     Davidson diagonalization with overlap
     ethr =  5.46E-05,  avg # of iterations =  2.2

     total cpu time spent up to now is      503.1 secs

     total energy              =   -2566.51137205 Ry
     estimated scf accuracy    <       0.12931357 Ry

     total magnetization       =    -0.00 Bohr mag/cell
     absolute magnetization    =     0.00 Bohr mag/cell

     iteration #  9     ecut=    90.00 Ry     beta= 0.20
     Davidson diagonalization with overlap
     ethr =  5.46E-05,  avg # of iterations =  1.0

     total cpu time spent up to now is      546.9 secs

     total energy              =   -2566.49582915 Ry
     estimated scf accuracy    <       0.10602792 Ry

     total magnetization       =    -0.00 Bohr mag/cell
     absolute magnetization    =     0.00 Bohr mag/cell

     iteration # 10     ecut=    90.00 Ry     beta= 0.20
     Davidson diagonalization with overlap
     ethr =  5.46E-05,  avg # of iterations =  2.0

     total cpu time spent up to now is      597.5 secs

     total energy              =   -2566.51584982 Ry
     estimated scf accuracy    <       0.13191946 Ry

     total magnetization       =    -0.00 Bohr mag/cell
     absolute magnetization    =     0.00 Bohr mag/cell

     iteration # 11     ecut=    90.00 Ry     beta= 0.20
     Davidson diagonalization with overlap
     ethr =  5.46E-05,  avg # of iterations =  1.0

     total cpu time spent up to now is      641.2 secs

     total energy              =   -2566.50321007 Ry
     estimated scf accuracy    <       0.19984877 Ry

     total magnetization       =    -0.00 Bohr mag/cell
     absolute magnetization    =     0.00 Bohr mag/cell

     iteration # 12     ecut=    90.00 Ry     beta= 0.20
     Davidson diagonalization with overlap
     ethr =  5.46E-05,  avg # of iterations =  1.0

     total cpu time spent up to now is      685.0 secs

     total energy              =   -2566.50871560 Ry
     estimated scf accuracy    <       0.01043838 Ry

     total magnetization       =    -0.00 Bohr mag/cell
     absolute magnetization    =     0.00 Bohr mag/cell

     iteration # 13     ecut=    90.00 Ry     beta= 0.20
     Davidson diagonalization with overlap
     ethr =  7.46E-06,  avg # of iterations =  1.5

     total cpu time spent up to now is      732.4 secs

     total energy              =   -2566.50926360 Ry
     estimated scf accuracy    <       0.00014268 Ry

     total magnetization       =    -0.00 Bohr mag/cell
     absolute magnetization    =     0.00 Bohr mag/cell

     iteration # 14     ecut=    90.00 Ry     beta= 0.20
     Davidson diagonalization with overlap
     ethr =  1.02E-07,  avg # of iterations =  2.1

     total cpu time spent up to now is      784.7 secs

     total energy              =   -2566.50926199 Ry
     estimated scf accuracy    <       0.00007546 Ry

     total magnetization       =    -0.00 Bohr mag/cell
     absolute magnetization    =     0.00 Bohr mag/cell

     iteration # 15     ecut=    90.00 Ry     beta= 0.20
     Davidson diagonalization with overlap
     ethr =  5.39E-08,  avg # of iterations =  1.1

     total cpu time spent up to now is      829.2 secs

     total energy              =   -2566.50925770 Ry
     estimated scf accuracy    <       0.00031256 Ry

     total magnetization       =    -0.00 Bohr mag/cell
     absolute magnetization    =     0.00 Bohr mag/cell

     iteration # 16     ecut=    90.00 Ry     beta= 0.20
     Davidson diagonalization with overlap
     ethr =  5.39E-08,  avg # of iterations =  1.1

     total cpu time spent up to now is      873.2 secs

     total energy              =   -2566.50926075 Ry
     estimated scf accuracy    <       0.00005158 Ry

     total magnetization       =    -0.00 Bohr mag/cell
     absolute magnetization    =     0.00 Bohr mag/cell

     iteration # 17     ecut=    90.00 Ry     beta= 0.20
     Davidson diagonalization with overlap
     ethr =  3.68E-08,  avg # of iterations =  1.0

     total cpu time spent up to now is      916.9 secs

     total energy              =   -2566.50925770 Ry
     estimated scf accuracy    <       0.00016722 Ry

     total magnetization       =    -0.00 Bohr mag/cell
     absolute magnetization    =     0.00 Bohr mag/cell

     iteration # 18     ecut=    90.00 Ry     beta= 0.20
     Davidson diagonalization with overlap
     ethr =  3.68E-08,  avg # of iterations =  1.0

     total cpu time spent up to now is      960.9 secs

     total energy              =   -2566.50925159 Ry
     estimated scf accuracy    <       0.00072904 Ry

     total magnetization       =    -0.00 Bohr mag/cell
     absolute magnetization    =     0.00 Bohr mag/cell

     iteration # 19     ecut=    90.00 Ry     beta= 0.20
     Davidson diagonalization with overlap
     ethr =  3.68E-08,  avg # of iterations =  1.0

     total cpu time spent up to now is     1004.7 secs

     total energy              =   -2566.50926307 Ry
     estimated scf accuracy    <       0.00003426 Ry

     total magnetization       =    -0.00 Bohr mag/cell
     absolute magnetization    =     0.00 Bohr mag/cell

     iteration # 20     ecut=    90.00 Ry     beta= 0.20
     Davidson diagonalization with overlap
     ethr =  2.45E-08,  avg # of iterations =  1.0

     total cpu time spent up to now is     1048.4 secs

     total energy              =   -2566.50926247 Ry
     estimated scf accuracy    <       0.00000985 Ry

     total magnetization       =    -0.00 Bohr mag/cell
     absolute magnetization    =     0.00 Bohr mag/cell

     iteration # 21     ecut=    90.00 Ry     beta= 0.20
     Davidson diagonalization with overlap
     ethr =  7.04E-09,  avg # of iterations =  1.0

     total cpu time spent up to now is     1092.2 secs

     total energy              =   -2566.50926158 Ry
     estimated scf accuracy    <       0.00006714 Ry

     total magnetization       =    -0.00 Bohr mag/cell
     absolute magnetization    =     0.00 Bohr mag/cell

     iteration # 22     ecut=    90.00 Ry     beta= 0.20
     Davidson diagonalization with overlap
     ethr =  7.04E-09,  avg # of iterations =  1.0

     total cpu time spent up to now is     1136.0 secs

     total energy              =   -2566.50926305 Ry
     estimated scf accuracy    <       0.00000342 Ry

     total magnetization       =    -0.00 Bohr mag/cell
     absolute magnetization    =     0.00 Bohr mag/cell

     iteration # 23     ecut=    90.00 Ry     beta= 0.20
     Davidson diagonalization with overlap
     ethr =  2.44E-09,  avg # of iterations =  1.0

     total cpu time spent up to now is     1180.6 secs

     total energy              =   -2566.50926304 Ry
     estimated scf accuracy    <       0.00000291 Ry

     total magnetization       =    -0.00 Bohr mag/cell
     absolute magnetization    =     0.00 Bohr mag/cell

     iteration # 24     ecut=    90.00 Ry     beta= 0.20
     Davidson diagonalization with overlap
     ethr =  2.08E-09,  avg # of iterations =  1.0

     total cpu time spent up to now is     1224.3 secs

     total energy              =   -2566.50926309 Ry
     estimated scf accuracy    <       0.00000216 Ry

     total magnetization       =    -0.00 Bohr mag/cell
     absolute magnetization    =     0.00 Bohr mag/cell

     iteration # 25     ecut=    90.00 Ry     beta= 0.20
     Davidson diagonalization with overlap
     ethr =  1.54E-09,  avg # of iterations =  1.0

     total cpu time spent up to now is     1268.0 secs

     total energy              =   -2566.50926310 Ry
     estimated scf accuracy    <       0.00000177 Ry

     total magnetization       =    -0.00 Bohr mag/cell
     absolute magnetization    =     0.00 Bohr mag/cell

     iteration # 26     ecut=    90.00 Ry     beta= 0.20
     Davidson diagonalization with overlap
     ethr =  1.27E-09,  avg # of iterations =  1.0

     total cpu time spent up to now is     1311.6 secs

     total energy              =   -2566.50926316 Ry
     estimated scf accuracy    <       0.00000027 Ry

     total magnetization       =    -0.00 Bohr mag/cell
     absolute magnetization    =     0.00 Bohr mag/cell

     iteration # 27     ecut=    90.00 Ry     beta= 0.20
     Davidson diagonalization with overlap
     ethr =  1.95E-10,  avg # of iterations =  1.0

     total cpu time spent up to now is     1355.3 secs

     total energy              =   -2566.50926317 Ry
     estimated scf accuracy    <       0.00000018 Ry

     total magnetization       =    -0.00 Bohr mag/cell
     absolute magnetization    =     0.01 Bohr mag/cell

     iteration # 28     ecut=    90.00 Ry     beta= 0.20
     Davidson diagonalization with overlap
     ethr =  1.29E-10,  avg # of iterations =  1.0

     total cpu time spent up to now is     1399.0 secs

     total energy              =   -2566.50926315 Ry
     estimated scf accuracy    <       0.00000101 Ry

     total magnetization       =    -0.00 Bohr mag/cell
     absolute magnetization    =     0.01 Bohr mag/cell

     iteration # 29     ecut=    90.00 Ry     beta= 0.20
     Davidson diagonalization with overlap
     ethr =  1.29E-10,  avg # of iterations =  1.0

     total cpu time spent up to now is     1442.6 secs

     total energy              =   -2566.50926318 Ry
     estimated scf accuracy    <       0.00000030 Ry

     total magnetization       =    -0.00 Bohr mag/cell
     absolute magnetization    =     0.01 Bohr mag/cell

     iteration # 30     ecut=    90.00 Ry     beta= 0.20
     Davidson diagonalization with overlap
     ethr =  1.29E-10,  avg # of iterations =  1.0

     total cpu time spent up to now is     1486.3 secs

     total energy              =   -2566.50926318 Ry
     estimated scf accuracy    <       0.00000014 Ry

     total magnetization       =    -0.00 Bohr mag/cell
     absolute magnetization    =     0.01 Bohr mag/cell

     iteration # 31     ecut=    90.00 Ry     beta= 0.20
     Davidson diagonalization with overlap
     ethr =  9.83E-11,  avg # of iterations =  1.0

     total cpu time spent up to now is     1529.9 secs

     total energy              =   -2566.50926319 Ry
     estimated scf accuracy    <       0.00000014 Ry

     total magnetization       =    -0.00 Bohr mag/cell
     absolute magnetization    =     0.01 Bohr mag/cell

     iteration # 32     ecut=    90.00 Ry     beta= 0.20
     Davidson diagonalization with overlap
     ethr =  9.83E-11,  avg # of iterations =  1.0

     total cpu time spent up to now is     1573.5 secs

     total energy              =   -2566.50926317 Ry
     estimated scf accuracy    <       0.00000012 Ry

     total magnetization       =    -0.00 Bohr mag/cell
     absolute magnetization    =     0.01 Bohr mag/cell

     iteration # 33     ecut=    90.00 Ry     beta= 0.20
     Davidson diagonalization with overlap
     ethr =  8.81E-11,  avg # of iterations =  1.0

     total cpu time spent up to now is     1617.2 secs

     total energy              =   -2566.50926315 Ry
     estimated scf accuracy    <       0.00000017 Ry

     total magnetization       =    -0.00 Bohr mag/cell
     absolute magnetization    =     0.01 Bohr mag/cell

     iteration # 34     ecut=    90.00 Ry     beta= 0.20
     Davidson diagonalization with overlap
     ethr =  8.81E-11,  avg # of iterations =  1.0

     total cpu time spent up to now is     1660.8 secs

     total energy              =   -2566.50926314 Ry
     estimated scf accuracy    <       0.00000010 Ry

     total magnetization       =    -0.00 Bohr mag/cell
     absolute magnetization    =     0.01 Bohr mag/cell

     iteration # 35     ecut=    90.00 Ry     beta= 0.20
     Davidson diagonalization with overlap
     ethr =  7.10E-11,  avg # of iterations =  1.0

     total cpu time spent up to now is     1704.4 secs

     total energy              =   -2566.50926313 Ry
     estimated scf accuracy    <       0.00000026 Ry

     total magnetization       =    -0.00 Bohr mag/cell
     absolute magnetization    =     0.00 Bohr mag/cell

     iteration # 36     ecut=    90.00 Ry     beta= 0.20
     Davidson diagonalization with overlap
     ethr =  7.10E-11,  avg # of iterations =  1.0

     total cpu time spent up to now is     1748.1 secs

     total energy              =   -2566.50926312 Ry
     estimated scf accuracy    <       0.00000018 Ry

     total magnetization       =    -0.00 Bohr mag/cell
     absolute magnetization    =     0.00 Bohr mag/cell

     iteration # 37     ecut=    90.00 Ry     beta= 0.20
     Davidson diagonalization with overlap
     ethr =  7.10E-11,  avg # of iterations =  1.0

     total cpu time spent up to now is     1791.7 secs

     total energy              =   -2566.50926312 Ry
     estimated scf accuracy    <       0.00000021 Ry

     total magnetization       =     0.00 Bohr mag/cell
     absolute magnetization    =     0.00 Bohr mag/cell

     iteration # 38     ecut=    90.00 Ry     beta= 0.20
     Davidson diagonalization with overlap
     ethr =  7.10E-11,  avg # of iterations =  1.0

     total cpu time spent up to now is     1835.3 secs

     total energy              =   -2566.50926312 Ry
     estimated scf accuracy    <       0.00000005 Ry

     total magnetization       =     0.00 Bohr mag/cell
     absolute magnetization    =     0.00 Bohr mag/cell

     iteration # 39     ecut=    90.00 Ry     beta= 0.20
     Davidson diagonalization with overlap
     ethr =  3.44E-11,  avg # of iterations =  1.0

     total cpu time spent up to now is     1878.8 secs

     total energy              =   -2566.50926312 Ry
     estimated scf accuracy    <       0.00000009 Ry

     total magnetization       =     0.00 Bohr mag/cell
     absolute magnetization    =     0.00 Bohr mag/cell

     iteration # 40     ecut=    90.00 Ry     beta= 0.20
     Davidson diagonalization with overlap
     ethr =  3.44E-11,  avg # of iterations =  1.0

     total cpu time spent up to now is     1922.4 secs

     total energy              =   -2566.50926312 Ry
     estimated scf accuracy    <       0.00000020 Ry

     total magnetization       =     0.00 Bohr mag/cell
     absolute magnetization    =     0.00 Bohr mag/cell

     iteration # 41     ecut=    90.00 Ry     beta= 0.20
     Davidson diagonalization with overlap
     ethr =  3.44E-11,  avg # of iterations =  1.0

     total cpu time spent up to now is     1965.9 secs

     total energy              =   -2566.50926312 Ry
     estimated scf accuracy    <       0.00000005 Ry

     total magnetization       =     0.00 Bohr mag/cell
     absolute magnetization    =     0.00 Bohr mag/cell

     iteration # 42     ecut=    90.00 Ry     beta= 0.20
     Davidson diagonalization with overlap
     ethr =  3.44E-11,  avg # of iterations =  1.0

     Magnetic moment per site:
     atom:    1    charge:   16.2898    magn:   -0.0000    constr:    0.0000
     atom:    2    charge:   15.1690    magn:    0.0007    constr:    0.0000
     atom:    3    charge:   16.2898    magn:    0.0001    constr:    0.0000
     atom:    4    charge:   15.1690    magn:   -0.0001    constr:    0.0000
     atom:    5    charge:   16.2898    magn:    0.0002    constr:    0.0000
     atom:    6    charge:   15.1689    magn:   -0.0001    constr:    0.0000
     atom:    7    charge:   16.2898    magn:    0.0001    constr:    0.0000
     atom:    8    charge:   15.1689    magn:    0.0002    constr:    0.0000

     total cpu time spent up to now is     2009.4 secs

     End of self-consistent calculation

     Number of k-points >= 100: set verbosity='high' to print the bands.

     the Fermi energy is    15.4924 ev

!    total energy              =   -2566.50926312 Ry
     estimated scf accuracy    <          1.0E-08 Ry
     smearing contrib. (-TS)   =      -0.01715769 Ry
     internal energy E=F+TS    =   -2566.49210543 Ry

     The total energy is F=E-TS. E is the sum of the following terms:
     one-electron contribution =   -1553.91793530 Ry
     hartree contribution      =     854.96813784 Ry
     xc contribution           =    -272.59954371 Ry
     ewald contribution        =   -1594.94276425 Ry

     total magnetization       =     0.00 Bohr mag/cell
     absolute magnetization    =     0.00 Bohr mag/cell

     convergence has been achieved in  42 iterations

     Forces acting on atoms (cartesian axes, Ry/au):

     atom    1 type  1   force =     0.00002352    0.00005459   -0.00004055
     atom    2 type  2   force =    -0.00021051   -0.00163968    0.00120402
     atom    3 type  1   force =     0.00002355    0.00005468   -0.00004050
     atom    4 type  2   force =    -0.00021050   -0.00164020    0.00120335
     atom    5 type  1   force =    -0.00019281    0.00104316   -0.00076534
     atom    6 type  2   force =     0.00037968    0.00054207   -0.00039781
     atom    7 type  1   force =    -0.00019271    0.00104291   -0.00076518
     atom    8 type  2   force =     0.00037977    0.00054247   -0.00039798

     Total force =     0.003604     Total SCF correction =     0.000027


     Computing stress (Cartesian axis) and pressure

          total   stress  (Ry/bohr**3)                   (kbar)     P=       -3.09
  -0.00009485   0.00000001  -0.00000001          -13.95        0.00       -0.00
   0.00000001   0.00001622   0.00000026            0.00        2.39        0.04
  -0.00000001   0.00000026   0.00001572           -0.00        0.04        2.31


     BFGS Geometry Optimization
     Energy error            =      0.0E+00
     Gradient error          =      1.6E-03

     number of scf cycles    =   1
     number of bfgs steps    =   0

     energy   new            =   -2566.5092631241 Ry

     new trust radius        =       0.0020451405 bohr
     new conv_thr            =       0.0000000100 Ry


ATOMIC_POSITIONS (angstrom)
Ni            0.0002771820        2.3087279189        0.0006742283
Co            2.3153215884        0.0041813533        2.3049828215
Ni            0.0002771965        0.0050779670        2.3043242500
Co            2.3153215941        2.3078310788        0.0013324689
Ni            2.3171786454       -0.0045498174        0.0077424107
Co            0.0004656540        2.3089858843        2.3041351708
Ni            2.3171786993        2.2991000482        2.3113924932
Co            0.0004657003        0.0053360958        0.0004850832



     Writing output data file ./pwscf.save/
     NEW-OLD atomic charge density approx. for the potential

     Check: negative core charge=   -0.000012
     Generating pointlists ...

     total cpu time spent up to now is     2037.1 secs

     Self-consistent Calculation

     iteration #  1     ecut=    90.00 Ry     beta= 0.20
     Davidson diagonalization with overlap
     ethr =  1.00E-06,  avg # of iterations =  3.0

     Threshold (ethr) on eigenvalues was too large:
     Diagonalizing with lowered threshold

     Davidson diagonalization with overlap
     ethr =  3.53E-09,  avg # of iterations =  3.2

     total cpu time spent up to now is     2175.3 secs

     total energy              =   -2566.50927464 Ry
     estimated scf accuracy    <       0.00000519 Ry

     total magnetization       =     0.00 Bohr mag/cell
     absolute magnetization    =     0.00 Bohr mag/cell

     iteration #  2     ecut=    90.00 Ry     beta= 0.20
     Davidson diagonalization with overlap
     ethr =  3.71E-09,  avg # of iterations =  2.0

     total cpu time spent up to now is     2225.7 secs

     total energy              =   -2566.50927206 Ry
     estimated scf accuracy    <       0.00015436 Ry

     total magnetization       =     0.00 Bohr mag/cell
     absolute magnetization    =     0.00 Bohr mag/cell

     iteration #  3     ecut=    90.00 Ry     beta= 0.20
     Davidson diagonalization with overlap
     ethr =  3.71E-09,  avg # of iterations =  1.2

     total cpu time spent up to now is     2270.4 secs

     total energy              =   -2566.50927481 Ry
     estimated scf accuracy    <       0.00001639 Ry

     total magnetization       =     0.00 Bohr mag/cell
     absolute magnetization    =     0.00 Bohr mag/cell

     iteration #  4     ecut=    90.00 Ry     beta= 0.20
     Davidson diagonalization with overlap
     ethr =  3.71E-09,  avg # of iterations =  1.0

     total cpu time spent up to now is     2313.9 secs

     total energy              =   -2566.50927508 Ry
     estimated scf accuracy    <       0.00000286 Ry

     total magnetization       =     0.00 Bohr mag/cell
     absolute magnetization    =     0.00 Bohr mag/cell

     iteration #  5     ecut=    90.00 Ry     beta= 0.20
     Davidson diagonalization with overlap
     ethr =  2.04E-09,  avg # of iterations =  1.1

     total cpu time spent up to now is     2358.1 secs

     total energy              =   -2566.50927505 Ry
     estimated scf accuracy    <       0.00000732 Ry

     total magnetization       =     0.00 Bohr mag/cell
     absolute magnetization    =     0.00 Bohr mag/cell

     iteration #  6     ecut=    90.00 Ry     beta= 0.20
     Davidson diagonalization with overlap
     ethr =  2.04E-09,  avg # of iterations =  1.0

     total cpu time spent up to now is     2401.7 secs

     total energy              =   -2566.50927519 Ry
     estimated scf accuracy    <       0.00000274 Ry

     total magnetization       =     0.00 Bohr mag/cell
     absolute magnetization    =     0.00 Bohr mag/cell

     iteration #  7     ecut=    90.00 Ry     beta= 0.20
     Davidson diagonalization with overlap
     ethr =  1.95E-09,  avg # of iterations =  1.0

     total cpu time spent up to now is     2445.2 secs

     total energy              =   -2566.50927527 Ry
     estimated scf accuracy    <       0.00000011 Ry

     total magnetization       =     0.00 Bohr mag/cell
     absolute magnetization    =     0.00 Bohr mag/cell

     iteration #  8     ecut=    90.00 Ry     beta= 0.20
     Davidson diagonalization with overlap
     ethr =  8.21E-11,  avg # of iterations =  1.0

     total cpu time spent up to now is     2488.7 secs

     total energy              =   -2566.50927528 Ry
     estimated scf accuracy    <       0.00000011 Ry

     total magnetization       =     0.00 Bohr mag/cell
     absolute magnetization    =     0.01 Bohr mag/cell

     iteration #  9     ecut=    90.00 Ry     beta= 0.20
     Davidson diagonalization with overlap
     ethr =  7.81E-11,  avg # of iterations =  1.0

     total cpu time spent up to now is     2532.2 secs

     total energy              =   -2566.50927527 Ry
     estimated scf accuracy    <       0.00000010 Ry

     total magnetization       =     0.00 Bohr mag/cell
     absolute magnetization    =     0.01 Bohr mag/cell

     iteration # 10     ecut=    90.00 Ry     beta= 0.20
     Davidson diagonalization with overlap
     ethr =  6.95E-11,  avg # of iterations =  1.0

     total cpu time spent up to now is     2575.8 secs

     total energy              =   -2566.50927528 Ry
     estimated scf accuracy    <       0.00000016 Ry

     total magnetization       =     0.00 Bohr mag/cell
     absolute magnetization    =     0.01 Bohr mag/cell

     iteration # 11     ecut=    90.00 Ry     beta= 0.20
     Davidson diagonalization with overlap
     ethr =  6.95E-11,  avg # of iterations =  1.0

     total cpu time spent up to now is     2619.4 secs

     total energy              =   -2566.50927528 Ry
     estimated scf accuracy    <       0.00000011 Ry

     total magnetization       =     0.00 Bohr mag/cell
     absolute magnetization    =     0.01 Bohr mag/cell

     iteration # 12     ecut=    90.00 Ry     beta= 0.20
     Davidson diagonalization with overlap
     ethr =  6.95E-11,  avg # of iterations =  1.0

     total cpu time spent up to now is     2662.9 secs

     total energy              =   -2566.50927528 Ry
     estimated scf accuracy    <       0.00000022 Ry

     total magnetization       =     0.00 Bohr mag/cell
     absolute magnetization    =     0.01 Bohr mag/cell

     iteration # 13     ecut=    90.00 Ry     beta= 0.20
     Davidson diagonalization with overlap
     ethr =  6.95E-11,  avg # of iterations =  1.0

     total cpu time spent up to now is     2706.5 secs

     total energy              =   -2566.50927528 Ry
     estimated scf accuracy    <       0.00000013 Ry

     total magnetization       =     0.00 Bohr mag/cell
     absolute magnetization    =     0.01 Bohr mag/cell

     iteration # 14     ecut=    90.00 Ry     beta= 0.20
     Davidson diagonalization with overlap
     ethr =  6.95E-11,  avg # of iterations =  1.0

     total cpu time spent up to now is     2750.0 secs

     total energy              =   -2566.50927528 Ry
     estimated scf accuracy    <       0.00000011 Ry

     total magnetization       =     0.00 Bohr mag/cell
     absolute magnetization    =     0.01 Bohr mag/cell

     iteration # 15     ecut=    90.00 Ry     beta= 0.20
     Davidson diagonalization with overlap
     ethr =  6.95E-11,  avg # of iterations =  1.0

     total cpu time spent up to now is     2793.6 secs

     total energy              =   -2566.50927528 Ry
     estimated scf accuracy    <       0.00000015 Ry

     total magnetization       =     0.00 Bohr mag/cell
     absolute magnetization    =     0.01 Bohr mag/cell

     iteration # 16     ecut=    90.00 Ry     beta= 0.20
     Davidson diagonalization with overlap
     ethr =  6.95E-11,  avg # of iterations =  1.0

     total cpu time spent up to now is     2837.1 secs

     total energy              =   -2566.50927528 Ry
     estimated scf accuracy    <       0.00000013 Ry

     total magnetization       =     0.00 Bohr mag/cell
     absolute magnetization    =     0.01 Bohr mag/cell

     iteration # 17     ecut=    90.00 Ry     beta= 0.20
     Davidson diagonalization with overlap
     ethr =  6.95E-11,  avg # of iterations =  1.0

     total cpu time spent up to now is     2880.6 secs

     total energy              =   -2566.50927527 Ry
     estimated scf accuracy    <       0.00000012 Ry

     total magnetization       =     0.00 Bohr mag/cell
     absolute magnetization    =     0.01 Bohr mag/cell

     iteration # 18     ecut=    90.00 Ry     beta= 0.20
     Davidson diagonalization with overlap
     ethr =  6.95E-11,  avg # of iterations =  1.0

     total cpu time spent up to now is     2924.1 secs

     total energy              =   -2566.50927526 Ry
     estimated scf accuracy    <       0.00000015 Ry

     total magnetization       =     0.00 Bohr mag/cell
     absolute magnetization    =     0.01 Bohr mag/cell

     iteration # 19     ecut=    90.00 Ry     beta= 0.20
     Davidson diagonalization with overlap
     ethr =  6.95E-11,  avg # of iterations =  1.0

     total cpu time spent up to now is     2967.7 secs

     total energy              =   -2566.50927524 Ry
     estimated scf accuracy    <       0.00000010 Ry

     total magnetization       =     0.00 Bohr mag/cell
     absolute magnetization    =     0.00 Bohr mag/cell

     iteration # 20     ecut=    90.00 Ry     beta= 0.20
     Davidson diagonalization with overlap
     ethr =  6.95E-11,  avg # of iterations =  1.0

     total cpu time spent up to now is     3011.2 secs

     total energy              =   -2566.50927524 Ry
     estimated scf accuracy    <       0.00000009 Ry

     total magnetization       =     0.00 Bohr mag/cell
     absolute magnetization    =     0.00 Bohr mag/cell

     iteration # 21     ecut=    90.00 Ry     beta= 0.20
     Davidson diagonalization with overlap
     ethr =  6.08E-11,  avg # of iterations =  1.0

     total cpu time spent up to now is     3054.7 secs

     total energy              =   -2566.50927523 Ry
     estimated scf accuracy    <       0.00000012 Ry

     total magnetization       =     0.00 Bohr mag/cell
     absolute magnetization    =     0.00 Bohr mag/cell

     iteration # 22     ecut=    90.00 Ry     beta= 0.20
     Davidson diagonalization with overlap
     ethr =  6.08E-11,  avg # of iterations =  1.0

     total cpu time spent up to now is     3098.2 secs

     total energy              =   -2566.50927522 Ry
     estimated scf accuracy    <       0.00000015 Ry

     total magnetization       =     0.00 Bohr mag/cell
     absolute magnetization    =     0.00 Bohr mag/cell

     iteration # 23     ecut=    90.00 Ry     beta= 0.20
     Davidson diagonalization with overlap
     ethr =  6.08E-11,  avg # of iterations =  1.0

     total cpu time spent up to now is     3141.7 secs

     total energy              =   -2566.50927522 Ry
     estimated scf accuracy    <       0.00000050 Ry

     total magnetization       =    -0.00 Bohr mag/cell
     absolute magnetization    =     0.00 Bohr mag/cell

     iteration # 24     ecut=    90.00 Ry     beta= 0.20
     Davidson diagonalization with overlap
     ethr =  6.08E-11,  avg # of iterations =  1.0

     total cpu time spent up to now is     3185.3 secs

     total energy              =   -2566.50927523 Ry
     estimated scf accuracy    <       0.00000004 Ry

     total magnetization       =    -0.00 Bohr mag/cell
     absolute magnetization    =     0.00 Bohr mag/cell

     iteration # 25     ecut=    90.00 Ry     beta= 0.20
     Davidson diagonalization with overlap
     ethr =  2.92E-11,  avg # of iterations =  1.0

     total cpu time spent up to now is     3228.8 secs

     total energy              =   -2566.50927523 Ry
     estimated scf accuracy    <       0.00000002 Ry

     total magnetization       =    -0.00 Bohr mag/cell
     absolute magnetization    =     0.00 Bohr mag/cell

     iteration # 26     ecut=    90.00 Ry     beta= 0.20
     Davidson diagonalization with overlap
     ethr =  1.63E-11,  avg # of iterations =  1.0

     total cpu time spent up to now is     3272.3 secs

     total energy              =   -2566.50927523 Ry
     estimated scf accuracy    <       0.00000016 Ry

     total magnetization       =    -0.00 Bohr mag/cell
     absolute magnetization    =     0.00 Bohr mag/cell

     iteration # 27     ecut=    90.00 Ry     beta= 0.20
     Davidson diagonalization with overlap
     ethr =  1.63E-11,  avg # of iterations =  1.0

     total cpu time spent up to now is     3315.8 secs

     total energy              =   -2566.50927523 Ry
     estimated scf accuracy    <       0.00000003 Ry

     total magnetization       =    -0.00 Bohr mag/cell
     absolute magnetization    =     0.00 Bohr mag/cell

     iteration # 28     ecut=    90.00 Ry     beta= 0.20
     Davidson diagonalization with overlap
     ethr =  1.63E-11,  avg # of iterations =  1.0

     Magnetic moment per site:
     atom:    1    charge:   16.2898    magn:   -0.0002    constr:    0.0000
     atom:    2    charge:   15.1690    magn:    0.0002    constr:    0.0000
     atom:    3    charge:   16.2898    magn:   -0.0001    constr:    0.0000
     atom:    4    charge:   15.1690    magn:   -0.0005    constr:    0.0000
     atom:    5    charge:   16.2898    magn:   -0.0001    constr:    0.0000
     atom:    6    charge:   15.1689    magn:   -0.0005    constr:    0.0000
     atom:    7    charge:   16.2898    magn:   -0.0002    constr:    0.0000
     atom:    8    charge:   15.1689    magn:   -0.0001    constr:    0.0000

     total cpu time spent up to now is     3359.3 secs

     End of self-consistent calculation

     Number of k-points >= 100: set verbosity='high' to print the bands.

     the Fermi energy is    15.4924 ev

!    total energy              =   -2566.50927524 Ry
     estimated scf accuracy    <          9.0E-09 Ry
     smearing contrib. (-TS)   =      -0.01716110 Ry
     internal energy E=F+TS    =   -2566.49211414 Ry

     The total energy is F=E-TS. E is the sum of the following terms:
     one-electron contribution =   -1553.91154261 Ry
     hartree contribution      =     854.96509842 Ry
     xc contribution           =    -272.59951675 Ry
     ewald contribution        =   -1594.94615319 Ry

     total magnetization       =    -0.00 Bohr mag/cell
     absolute magnetization    =     0.00 Bohr mag/cell

     convergence has been achieved in  28 iterations

     Forces acting on atoms (cartesian axes, Ry/au):

     atom    1 type  1   force =    -0.00004143    0.00013384   -0.00009849
     atom    2 type  2   force =    -0.00016189   -0.00146518    0.00107642
     atom    3 type  1   force =    -0.00004023    0.00013311   -0.00009820
     atom    4 type  2   force =    -0.00016051   -0.00146785    0.00107706
     atom    5 type  1   force =    -0.00011284    0.00085756   -0.00063094
     atom    6 type  2   force =     0.00032261    0.00047392   -0.00034702
     atom    7 type  1   force =    -0.00012122    0.00086184   -0.00063148
     atom    8 type  2   force =     0.00031550    0.00047275   -0.00034735

     Total force =     0.003150     Total SCF correction =     0.000193


     Computing stress (Cartesian axis) and pressure

          total   stress  (Ry/bohr**3)                   (kbar)     P=       -3.09
  -0.00009482   0.00000001  -0.00000001          -13.95        0.00       -0.00
   0.00000001   0.00001606   0.00000019            0.00        2.36        0.03
  -0.00000001   0.00000019   0.00001569           -0.00        0.03        2.31

     Energy error            =      1.2E-05
     Gradient error          =      1.5E-03

     number of scf cycles    =   3
     number of bfgs steps    =   1

     energy   old            =   -2566.5092631241 Ry
     energy   new            =   -2566.5092752366 Ry

     CASE: energy  _new < energy  _old


     WARNING: bfgs curvature condition failed, Theta= 0.917
     new trust radius        =       0.0022496545 bohr
     new conv_thr            =       0.0000000001 Ry


ATOMIC_POSITIONS (angstrom)
Ni            0.0002554459        2.3088079469        0.0006153100
Co            2.3152139365        0.0032269769        2.3056839227
Ni            0.0002561445        0.0051575876        2.3042655007
Co            2.3152147247        2.3068751496        0.0020338871
Ni            2.3171001459       -0.0039849541        0.0073269835
Co            0.0006771950        2.3092954643        2.3039084210
Ni            2.3170954521        2.2996673175        2.3109767683
Co            0.0006732153        0.0056450403        0.0002581332



     Writing output data file ./pwscf.save/
     NEW-OLD atomic charge density approx. for the potential

     Check: negative core charge=   -0.000012
     Generating pointlists ...

     total cpu time spent up to now is     3386.9 secs

     Self-consistent Calculation

     iteration #  1     ecut=    90.00 Ry     beta= 0.20
     Davidson diagonalization with overlap
     ethr =  1.00E-06,  avg # of iterations =  3.0

     Threshold (ethr) on eigenvalues was too large:
     Diagonalizing with lowered threshold

     Davidson diagonalization with overlap
     ethr =  2.54E-09,  avg # of iterations =  3.8

     total cpu time spent up to now is     3532.5 secs

     total energy              =   -2566.50928622 Ry
     estimated scf accuracy    <       0.00000382 Ry

     total magnetization       =    -0.00 Bohr mag/cell
     absolute magnetization    =     0.00 Bohr mag/cell

     iteration #  2     ecut=    90.00 Ry     beta= 0.20
     Davidson diagonalization with overlap
     ethr =  2.73E-09,  avg # of iterations =  1.4

     total cpu time spent up to now is     3578.4 secs

     total energy              =   -2566.50928568 Ry
     estimated scf accuracy    <       0.00001807 Ry

     total magnetization       =    -0.00 Bohr mag/cell
     absolute magnetization    =     0.00 Bohr mag/cell

     iteration #  3     ecut=    90.00 Ry     beta= 0.20
     Davidson diagonalization with overlap
     ethr =  2.73E-09,  avg # of iterations =  1.0

     total cpu time spent up to now is     3621.8 secs

     total energy              =   -2566.50928603 Ry
     estimated scf accuracy    <       0.00001098 Ry

     total magnetization       =    -0.00 Bohr mag/cell
     absolute magnetization    =     0.00 Bohr mag/cell

     iteration #  4     ecut=    90.00 Ry     beta= 0.20
     Davidson diagonalization with overlap
     ethr =  2.73E-09,  avg # of iterations =  1.0

     total cpu time spent up to now is     3665.2 secs

     total energy              =   -2566.50928599 Ry
     estimated scf accuracy    <       0.00001472 Ry

     total magnetization       =    -0.00 Bohr mag/cell
     absolute magnetization    =     0.00 Bohr mag/cell

     iteration #  5     ecut=    90.00 Ry     beta= 0.20
     Davidson diagonalization with overlap
     ethr =  2.73E-09,  avg # of iterations =  1.1

     total cpu time spent up to now is     3709.3 secs

     total energy              =   -2566.50928634 Ry
     estimated scf accuracy    <       0.00000038 Ry

     total magnetization       =    -0.00 Bohr mag/cell
     absolute magnetization    =     0.01 Bohr mag/cell

     iteration #  6     ecut=    90.00 Ry     beta= 0.20
     Davidson diagonalization with overlap
     ethr =  2.73E-10,  avg # of iterations =  1.0

     total cpu time spent up to now is     3752.7 secs

     total energy              =   -2566.50928636 Ry
     estimated scf accuracy    <       0.00000089 Ry

     total magnetization       =    -0.01 Bohr mag/cell
     absolute magnetization    =     0.01 Bohr mag/cell

     iteration #  7     ecut=    90.00 Ry     beta= 0.20
     Davidson diagonalization with overlap
     ethr =  2.73E-10,  avg # of iterations =  1.0

     total cpu time spent up to now is     3796.1 secs

     total energy              =   -2566.50928638 Ry
     estimated scf accuracy    <       0.00000022 Ry

     total magnetization       =    -0.01 Bohr mag/cell
     absolute magnetization    =     0.01 Bohr mag/cell

     iteration #  8     ecut=    90.00 Ry     beta= 0.20
     Davidson diagonalization with overlap
     ethr =  1.59E-10,  avg # of iterations =  1.0

     total cpu time spent up to now is     3839.5 secs

     total energy              =   -2566.50928636 Ry
     estimated scf accuracy    <       0.00000013 Ry

     total magnetization       =    -0.01 Bohr mag/cell
     absolute magnetization    =     0.01 Bohr mag/cell

     iteration #  9     ecut=    90.00 Ry     beta= 0.20
     Davidson diagonalization with overlap
     ethr =  9.19E-11,  avg # of iterations =  1.0

     total cpu time spent up to now is     3883.0 secs

     total energy              =   -2566.50928634 Ry
     estimated scf accuracy    <       0.00000030 Ry

     total magnetization       =    -0.01 Bohr mag/cell
     absolute magnetization    =     0.01 Bohr mag/cell

     iteration # 10     ecut=    90.00 Ry     beta= 0.20
     Davidson diagonalization with overlap
     ethr =  9.19E-11,  avg # of iterations =  1.0

     total cpu time spent up to now is     3926.5 secs

     total energy              =   -2566.50928635 Ry
     estimated scf accuracy    <       0.00000025 Ry

     total magnetization       =    -0.00 Bohr mag/cell
     absolute magnetization    =     0.01 Bohr mag/cell

     iteration # 11     ecut=    90.00 Ry     beta= 0.20
     Davidson diagonalization with overlap
     ethr =  9.19E-11,  avg # of iterations =  1.0

     total cpu time spent up to now is     3970.0 secs

     total energy              =   -2566.50928630 Ry
     estimated scf accuracy    <       0.00000027 Ry

     total magnetization       =    -0.01 Bohr mag/cell
     absolute magnetization    =     0.01 Bohr mag/cell

     iteration # 12     ecut=    90.00 Ry     beta= 0.20
     Davidson diagonalization with overlap
     ethr =  9.19E-11,  avg # of iterations =  1.0

     total cpu time spent up to now is     4013.5 secs

     total energy              =   -2566.50928632 Ry
     estimated scf accuracy    <       0.00000007 Ry

     total magnetization       =    -0.00 Bohr mag/cell
     absolute magnetization    =     0.00 Bohr mag/cell

     iteration # 13     ecut=    90.00 Ry     beta= 0.20
     Davidson diagonalization with overlap
     ethr =  5.08E-11,  avg # of iterations =  1.0

     total cpu time spent up to now is     4057.0 secs

     total energy              =   -2566.50928632 Ry
     estimated scf accuracy    <       0.00000008 Ry

     total magnetization       =    -0.00 Bohr mag/cell
     absolute magnetization    =     0.00 Bohr mag/cell

     iteration # 14     ecut=    90.00 Ry     beta= 0.20
     Davidson diagonalization with overlap
     ethr =  5.08E-11,  avg # of iterations =  1.0

     total cpu time spent up to now is     4100.5 secs

     total energy              =   -2566.50928632 Ry
     estimated scf accuracy    <       0.00000044 Ry

     total magnetization       =    -0.00 Bohr mag/cell
     absolute magnetization    =     0.00 Bohr mag/cell

     iteration # 15     ecut=    90.00 Ry     beta= 0.20
     Davidson diagonalization with overlap
     ethr =  5.08E-11,  avg # of iterations =  1.0

     total cpu time spent up to now is     4144.0 secs

     total energy              =   -2566.50928633 Ry
     estimated scf accuracy    <          9.8E-09 Ry

     total magnetization       =     0.00 Bohr mag/cell
     absolute magnetization    =     0.00 Bohr mag/cell

     iteration # 16     ecut=    90.00 Ry     beta= 0.20
     Davidson diagonalization with overlap
     ethr =  7.02E-12,  avg # of iterations =  1.0

     total cpu time spent up to now is     4187.5 secs

     total energy              =   -2566.50928633 Ry
     estimated scf accuracy    <       0.00000007 Ry

     total magnetization       =     0.00 Bohr mag/cell
     absolute magnetization    =     0.00 Bohr mag/cell

     iteration # 17     ecut=    90.00 Ry     beta= 0.20
     Davidson diagonalization with overlap
     ethr =  7.02E-12,  avg # of iterations =  1.0

     total cpu time spent up to now is     4231.0 secs

     total energy              =   -2566.50928633 Ry
     estimated scf accuracy    <          9.6E-09 Ry

     total magnetization       =     0.00 Bohr mag/cell
     absolute magnetization    =     0.00 Bohr mag/cell

     iteration # 18     ecut=    90.00 Ry     beta= 0.20
     Davidson diagonalization with overlap
     ethr =  6.84E-12,  avg # of iterations =  1.0

     total cpu time spent up to now is     4274.5 secs

     total energy              =   -2566.50928633 Ry
     estimated scf accuracy    <          7.4E-09 Ry

     total magnetization       =     0.00 Bohr mag/cell
     absolute magnetization    =     0.00 Bohr mag/cell

     iteration # 19     ecut=    90.00 Ry     beta= 0.20
     Davidson diagonalization with overlap
     ethr =  5.32E-12,  avg # of iterations =  1.0

     total cpu time spent up to now is     4318.0 secs

     total energy              =   -2566.50928633 Ry
     estimated scf accuracy    <          7.8E-09 Ry

     total magnetization       =     0.00 Bohr mag/cell
     absolute magnetization    =     0.00 Bohr mag/cell

     iteration # 20     ecut=    90.00 Ry     beta= 0.20
     Davidson diagonalization with overlap
     ethr =  5.32E-12,  avg # of iterations =  1.0

     total cpu time spent up to now is     4361.5 secs

     total energy              =   -2566.50928633 Ry
     estimated scf accuracy    <          9.1E-09 Ry

     total magnetization       =     0.00 Bohr mag/cell
     absolute magnetization    =     0.00 Bohr mag/cell

     iteration # 21     ecut=    90.00 Ry     beta= 0.20
     Davidson diagonalization with overlap
     ethr =  5.32E-12,  avg # of iterations =  1.0

     total cpu time spent up to now is     4405.0 secs

     total energy              =   -2566.50928633 Ry
     estimated scf accuracy    <          6.1E-09 Ry

     total magnetization       =     0.00 Bohr mag/cell
     absolute magnetization    =     0.00 Bohr mag/cell

     iteration # 22     ecut=    90.00 Ry     beta= 0.20
     Davidson diagonalization with overlap
     ethr =  4.37E-12,  avg # of iterations =  1.0

     total cpu time spent up to now is     4448.5 secs

     total energy              =   -2566.50928633 Ry
     estimated scf accuracy    <       0.00000001 Ry

     total magnetization       =     0.00 Bohr mag/cell
     absolute magnetization    =     0.00 Bohr mag/cell

     iteration # 23     ecut=    90.00 Ry     beta= 0.20
     Davidson diagonalization with overlap
     ethr =  4.37E-12,  avg # of iterations =  1.0

     total cpu time spent up to now is     4492.0 secs

     total energy              =   -2566.50928633 Ry
     estimated scf accuracy    <          6.1E-09 Ry

     total magnetization       =     0.00 Bohr mag/cell
     absolute magnetization    =     0.00 Bohr mag/cell

     iteration # 24     ecut=    90.00 Ry     beta= 0.20
     Davidson diagonalization with overlap
     ethr =  4.33E-12,  avg # of iterations =  1.0

     total cpu time spent up to now is     4535.5 secs

     total energy              =   -2566.50928633 Ry
     estimated scf accuracy    <          7.1E-09 Ry

     total magnetization       =    -0.00 Bohr mag/cell
     absolute magnetization    =     0.00 Bohr mag/cell

     iteration # 25     ecut=    90.00 Ry     beta= 0.20
     Davidson diagonalization with overlap
     ethr =  4.33E-12,  avg # of iterations =  1.0

     total cpu time spent up to now is     4579.1 secs

     total energy              =   -2566.50928633 Ry
     estimated scf accuracy    <          6.6E-09 Ry

     total magnetization       =    -0.00 Bohr mag/cell
     absolute magnetization    =     0.00 Bohr mag/cell

     iteration # 26     ecut=    90.00 Ry     beta= 0.20
     Davidson diagonalization with overlap
     ethr =  4.33E-12,  avg # of iterations =  1.0

     total cpu time spent up to now is     4622.6 secs

     total energy              =   -2566.50928633 Ry
     estimated scf accuracy    <          6.7E-09 Ry

     total magnetization       =    -0.00 Bohr mag/cell
     absolute magnetization    =     0.00 Bohr mag/cell

     iteration # 27     ecut=    90.00 Ry     beta= 0.20
     Davidson diagonalization with overlap
     ethr =  4.33E-12,  avg # of iterations =  1.0

     total cpu time spent up to now is     4666.1 secs

     total energy              =   -2566.50928633 Ry
     estimated scf accuracy    <          5.7E-09 Ry

     total magnetization       =     0.00 Bohr mag/cell
     absolute magnetization    =     0.00 Bohr mag/cell

     iteration # 28     ecut=    90.00 Ry     beta= 0.20
     Davidson diagonalization with overlap
     ethr =  4.05E-12,  avg # of iterations =  1.0

     total cpu time spent up to now is     4709.6 secs

     total energy              =   -2566.50928633 Ry
     estimated scf accuracy    <          7.5E-09 Ry

     total magnetization       =     0.00 Bohr mag/cell
     absolute magnetization    =     0.00 Bohr mag/cell

     iteration # 29     ecut=    90.00 Ry     beta= 0.20
     Davidson diagonalization with overlap
     ethr =  4.05E-12,  avg # of iterations =  1.0

     total cpu time spent up to now is     4753.1 secs

     total energy              =   -2566.50928633 Ry
     estimated scf accuracy    <       0.00000004 Ry

     total magnetization       =     0.00 Bohr mag/cell
     absolute magnetization    =     0.00 Bohr mag/cell

     iteration # 30     ecut=    90.00 Ry     beta= 0.20
     Davidson diagonalization with overlap
     ethr =  4.05E-12,  avg # of iterations =  1.0

     total cpu time spent up to now is     4797.5 secs

     total energy              =   -2566.50928633 Ry
     estimated scf accuracy    <          5.5E-09 Ry

     total magnetization       =     0.00 Bohr mag/cell
     absolute magnetization    =     0.00 Bohr mag/cell

     iteration # 31     ecut=    90.00 Ry     beta= 0.20
     Davidson diagonalization with overlap
     ethr =  3.91E-12,  avg # of iterations =  1.0

     total cpu time spent up to now is     4841.6 secs

     total energy              =   -2566.50928633 Ry
     estimated scf accuracy    <          6.6E-09 Ry

     total magnetization       =     0.00 Bohr mag/cell
     absolute magnetization    =     0.00 Bohr mag/cell

     iteration # 32     ecut=    90.00 Ry     beta= 0.20
     Davidson diagonalization with overlap
     ethr =  3.91E-12,  avg # of iterations =  1.0

     total cpu time spent up to now is     4885.7 secs

     total energy              =   -2566.50928633 Ry
     estimated scf accuracy    <          4.6E-09 Ry

     total magnetization       =     0.00 Bohr mag/cell
     absolute magnetization    =     0.00 Bohr mag/cell

     iteration # 33     ecut=    90.00 Ry     beta= 0.20
     Davidson diagonalization with overlap
     ethr =  3.30E-12,  avg # of iterations =  1.0

     total cpu time spent up to now is     4929.8 secs

     total energy              =   -2566.50928633 Ry
     estimated scf accuracy    <          3.8E-09 Ry

     total magnetization       =     0.00 Bohr mag/cell
     absolute magnetization    =     0.00 Bohr mag/cell

     iteration # 34     ecut=    90.00 Ry     beta= 0.20
     Davidson diagonalization with overlap
     ethr =  2.74E-12,  avg # of iterations =  1.0

     total cpu time spent up to now is     4973.9 secs

     total energy              =   -2566.50928633 Ry
     estimated scf accuracy    <          5.4E-09 Ry

     total magnetization       =     0.00 Bohr mag/cell
     absolute magnetization    =     0.00 Bohr mag/cell

     iteration # 35     ecut=    90.00 Ry     beta= 0.20
     Davidson diagonalization with overlap
     ethr =  2.74E-12,  avg # of iterations =  1.0

     total cpu time spent up to now is     5018.0 secs

     total energy              =   -2566.50928633 Ry
     estimated scf accuracy    <       0.00000001 Ry

     total magnetization       =     0.00 Bohr mag/cell
     absolute magnetization    =     0.00 Bohr mag/cell

     iteration # 36     ecut=    90.00 Ry     beta= 0.20
     Davidson diagonalization with overlap
     ethr =  2.74E-12,  avg # of iterations =  1.0

     total cpu time spent up to now is     5062.1 secs

     total energy              =   -2566.50928633 Ry
     estimated scf accuracy    <          5.2E-09 Ry

     total magnetization       =     0.00 Bohr mag/cell
     absolute magnetization    =     0.00 Bohr mag/cell

     iteration # 37     ecut=    90.00 Ry     beta= 0.20
     Davidson diagonalization with overlap
     ethr =  2.74E-12,  avg # of iterations =  1.0

     total cpu time spent up to now is     5106.2 secs

     total energy              =   -2566.50928633 Ry
     estimated scf accuracy    <          5.0E-09 Ry

     total magnetization       =     0.00 Bohr mag/cell
     absolute magnetization    =     0.00 Bohr mag/cell

     iteration # 38     ecut=    90.00 Ry     beta= 0.20
     Davidson diagonalization with overlap
     ethr =  2.74E-12,  avg # of iterations =  1.0

     total cpu time spent up to now is     5150.3 secs

     total energy              =   -2566.50928633 Ry
     estimated scf accuracy    <          7.1E-09 Ry

     total magnetization       =     0.00 Bohr mag/cell
     absolute magnetization    =     0.00 Bohr mag/cell

     iteration # 39     ecut=    90.00 Ry     beta= 0.20
     Davidson diagonalization with overlap
     ethr =  2.74E-12,  avg # of iterations =  1.0

     total cpu time spent up to now is     5194.4 secs

     total energy              =   -2566.50928633 Ry
     estimated scf accuracy    <          3.7E-09 Ry

     total magnetization       =     0.00 Bohr mag/cell
     absolute magnetization    =     0.00 Bohr mag/cell

     iteration # 40     ecut=    90.00 Ry     beta= 0.20
     Davidson diagonalization with overlap
     ethr =  2.67E-12,  avg # of iterations =  1.0

     total cpu time spent up to now is     5238.4 secs

     total energy              =   -2566.50928633 Ry
     estimated scf accuracy    <          6.2E-09 Ry

     total magnetization       =     0.00 Bohr mag/cell
     absolute magnetization    =     0.00 Bohr mag/cell

     iteration # 41     ecut=    90.00 Ry     beta= 0.20
     Davidson diagonalization with overlap
     ethr =  2.67E-12,  avg # of iterations =  1.0

     total cpu time spent up to now is     5282.6 secs

     total energy              =   -2566.50928633 Ry
     estimated scf accuracy    <          2.7E-09 Ry

     total magnetization       =     0.00 Bohr mag/cell
     absolute magnetization    =     0.00 Bohr mag/cell

     iteration # 42     ecut=    90.00 Ry     beta= 0.20
     Davidson diagonalization with overlap
     ethr =  1.91E-12,  avg # of iterations =  1.0

     total cpu time spent up to now is     5326.7 secs

     total energy              =   -2566.50928633 Ry
     estimated scf accuracy    <          4.3E-09 Ry

     total magnetization       =     0.00 Bohr mag/cell
     absolute magnetization    =     0.00 Bohr mag/cell

     iteration # 43     ecut=    90.00 Ry     beta= 0.20
     Davidson diagonalization with overlap
     ethr =  1.91E-12,  avg # of iterations =  1.0

     total cpu time spent up to now is     5370.8 secs

     total energy              =   -2566.50928633 Ry
     estimated scf accuracy    <          3.1E-09 Ry

     total magnetization       =     0.00 Bohr mag/cell
     absolute magnetization    =     0.00 Bohr mag/cell

     iteration # 44     ecut=    90.00 Ry     beta= 0.20
     Davidson diagonalization with overlap
     ethr =  1.91E-12,  avg # of iterations =  1.0

     total cpu time spent up to now is     5414.9 secs

     total energy              =   -2566.50928633 Ry
     estimated scf accuracy    <          1.6E-09 Ry

     total magnetization       =     0.00 Bohr mag/cell
     absolute magnetization    =     0.00 Bohr mag/cell

     iteration # 45     ecut=    90.00 Ry     beta= 0.20
     Davidson diagonalization with overlap
     ethr =  1.17E-12,  avg # of iterations =  1.0

     total cpu time spent up to now is     5459.0 secs

     total energy              =   -2566.50928633 Ry
     estimated scf accuracy    <          3.6E-09 Ry

     total magnetization       =     0.00 Bohr mag/cell
     absolute magnetization    =     0.00 Bohr mag/cell

     iteration # 46     ecut=    90.00 Ry     beta= 0.20
     Davidson diagonalization with overlap
     ethr =  1.17E-12,  avg # of iterations =  1.0

     total cpu time spent up to now is     5503.0 secs

     total energy              =   -2566.50928633 Ry
     estimated scf accuracy    <          1.4E-09 Ry

     total magnetization       =     0.00 Bohr mag/cell
     absolute magnetization    =     0.00 Bohr mag/cell

     iteration # 47     ecut=    90.00 Ry     beta= 0.20
     Davidson diagonalization with overlap
     ethr =  1.03E-12,  avg # of iterations =  1.0

     total cpu time spent up to now is     5547.2 secs

     total energy              =   -2566.50928633 Ry
     estimated scf accuracy    <          1.7E-09 Ry

     total magnetization       =     0.00 Bohr mag/cell
     absolute magnetization    =     0.00 Bohr mag/cell

     iteration # 48     ecut=    90.00 Ry     beta= 0.20
     Davidson diagonalization with overlap
     ethr =  1.03E-12,  avg # of iterations =  1.0

     total cpu time spent up to now is     5591.2 secs

     total energy              =   -2566.50928633 Ry
     estimated scf accuracy    <          1.7E-09 Ry

     total magnetization       =     0.00 Bohr mag/cell
     absolute magnetization    =     0.00 Bohr mag/cell

     iteration # 49     ecut=    90.00 Ry     beta= 0.20
     Davidson diagonalization with overlap
     ethr =  1.03E-12,  avg # of iterations =  1.0

     total cpu time spent up to now is     5635.3 secs

     total energy              =   -2566.50928633 Ry
     estimated scf accuracy    <          1.7E-09 Ry

     total magnetization       =     0.00 Bohr mag/cell
     absolute magnetization    =     0.00 Bohr mag/cell

     iteration # 50     ecut=    90.00 Ry     beta= 0.20
     Davidson diagonalization with overlap
     ethr =  1.03E-12,  avg # of iterations =  1.0

     total cpu time spent up to now is     5679.4 secs

     total energy              =   -2566.50928633 Ry
     estimated scf accuracy    <          1.8E-09 Ry

     total magnetization       =     0.00 Bohr mag/cell
     absolute magnetization    =     0.00 Bohr mag/cell

     iteration # 51     ecut=    90.00 Ry     beta= 0.20
     Davidson diagonalization with overlap
     ethr =  1.03E-12,  avg # of iterations =  1.0

     total cpu time spent up to now is     5723.4 secs

     total energy              =   -2566.50928633 Ry
     estimated scf accuracy    <          1.6E-09 Ry

     total magnetization       =     0.00 Bohr mag/cell
     absolute magnetization    =     0.00 Bohr mag/cell

     iteration # 52     ecut=    90.00 Ry     beta= 0.20
     Davidson diagonalization with overlap
     ethr =  1.03E-12,  avg # of iterations =  1.0

     total cpu time spent up to now is     5767.5 secs

     total energy              =   -2566.50928633 Ry
     estimated scf accuracy    <          3.2E-09 Ry

     total magnetization       =     0.00 Bohr mag/cell
     absolute magnetization    =     0.00 Bohr mag/cell

     iteration # 53     ecut=    90.00 Ry     beta= 0.20
     Davidson diagonalization with overlap
     ethr =  1.03E-12,  avg # of iterations =  1.0

     total cpu time spent up to now is     5811.6 secs

     total energy              =   -2566.50928633 Ry
     estimated scf accuracy    <          1.5E-09 Ry

     total magnetization       =     0.00 Bohr mag/cell
     absolute magnetization    =     0.00 Bohr mag/cell

     iteration # 54     ecut=    90.00 Ry     beta= 0.20
     Davidson diagonalization with overlap
     ethr =  1.03E-12,  avg # of iterations =  1.0

     total cpu time spent up to now is     5855.7 secs

     total energy              =   -2566.50928633 Ry
     estimated scf accuracy    <          4.3E-09 Ry

     total magnetization       =     0.00 Bohr mag/cell
     absolute magnetization    =     0.00 Bohr mag/cell

     iteration # 55     ecut=    90.00 Ry     beta= 0.20
     Davidson diagonalization with overlap
     ethr =  1.03E-12,  avg # of iterations =  1.0

     total cpu time spent up to now is     5899.7 secs

     total energy              =   -2566.50928633 Ry
     estimated scf accuracy    <          6.9E-10 Ry

     total magnetization       =     0.00 Bohr mag/cell
     absolute magnetization    =     0.00 Bohr mag/cell

     iteration # 56     ecut=    90.00 Ry     beta= 0.20
     Davidson diagonalization with overlap
     ethr =  4.92E-13,  avg # of iterations =  1.0

     total cpu time spent up to now is     5943.8 secs

     total energy              =   -2566.50928633 Ry
     estimated scf accuracy    <          6.5E-10 Ry

     total magnetization       =     0.00 Bohr mag/cell
     absolute magnetization    =     0.00 Bohr mag/cell

     iteration # 57     ecut=    90.00 Ry     beta= 0.20
     Davidson diagonalization with overlap
     ethr =  4.65E-13,  avg # of iterations =  1.0

     total cpu time spent up to now is     5987.9 secs

     total energy              =   -2566.50928633 Ry
     estimated scf accuracy    <          1.3E-09 Ry

     total magnetization       =     0.00 Bohr mag/cell
     absolute magnetization    =     0.00 Bohr mag/cell

     iteration # 58     ecut=    90.00 Ry     beta= 0.20
     Davidson diagonalization with overlap
     ethr =  4.65E-13,  avg # of iterations =  1.0

     total cpu time spent up to now is     6032.0 secs

     total energy              =   -2566.50928633 Ry
     estimated scf accuracy    <          6.3E-10 Ry

     total magnetization       =     0.00 Bohr mag/cell
     absolute magnetization    =     0.00 Bohr mag/cell

     iteration # 59     ecut=    90.00 Ry     beta= 0.20
     Davidson diagonalization with overlap
     ethr =  4.47E-13,  avg # of iterations =  1.0

     total cpu time spent up to now is     6076.1 secs

     total energy              =   -2566.50928633 Ry
     estimated scf accuracy    <          2.0E-09 Ry

     total magnetization       =     0.00 Bohr mag/cell
     absolute magnetization    =     0.00 Bohr mag/cell

     iteration # 60     ecut=    90.00 Ry     beta= 0.20
     Davidson diagonalization with overlap
     ethr =  4.47E-13,  avg # of iterations =  1.0

     total cpu time spent up to now is     6120.2 secs

     total energy              =   -2566.50928633 Ry
     estimated scf accuracy    <          2.8E-09 Ry

     total magnetization       =     0.00 Bohr mag/cell
     absolute magnetization    =     0.00 Bohr mag/cell

     iteration # 61     ecut=    90.00 Ry     beta= 0.20
     Davidson diagonalization with overlap
     ethr =  4.47E-13,  avg # of iterations =  1.0

     total cpu time spent up to now is     6164.3 secs

     total energy              =   -2566.50928633 Ry
     estimated scf accuracy    <          2.5E-10 Ry

     total magnetization       =     0.00 Bohr mag/cell
     absolute magnetization    =     0.00 Bohr mag/cell

     iteration # 62     ecut=    90.00 Ry     beta= 0.20
     Davidson diagonalization with overlap
     ethr =  1.80E-13,  avg # of iterations =  1.0

     total cpu time spent up to now is     6208.4 secs

     total energy              =   -2566.50928633 Ry
     estimated scf accuracy    <          2.3E-09 Ry

     total magnetization       =    -0.00 Bohr mag/cell
     absolute magnetization    =     0.00 Bohr mag/cell

     iteration # 63     ecut=    90.00 Ry     beta= 0.20
     Davidson diagonalization with overlap
     ethr =  1.80E-13,  avg # of iterations =  1.0

     total cpu time spent up to now is     6252.4 secs

     total energy              =   -2566.50928633 Ry
     estimated scf accuracy    <          1.7E-10 Ry

     total magnetization       =    -0.00 Bohr mag/cell
     absolute magnetization    =     0.00 Bohr mag/cell

     iteration # 64     ecut=    90.00 Ry     beta= 0.20
     Davidson diagonalization with overlap
     ethr =  1.24E-13,  avg # of iterations =  1.0

     total cpu time spent up to now is     6296.5 secs

     total energy              =   -2566.50928633 Ry
     estimated scf accuracy    <          5.2E-10 Ry

     total magnetization       =    -0.00 Bohr mag/cell
     absolute magnetization    =     0.00 Bohr mag/cell

     iteration # 65     ecut=    90.00 Ry     beta= 0.20
     Davidson diagonalization with overlap
     ethr =  1.24E-13,  avg # of iterations =  1.0

     total cpu time spent up to now is     6340.6 secs

     total energy              =   -2566.50928633 Ry
     estimated scf accuracy    <          1.4E-10 Ry

     total magnetization       =    -0.00 Bohr mag/cell
     absolute magnetization    =     0.00 Bohr mag/cell

     iteration # 66     ecut=    90.00 Ry     beta= 0.20
     Davidson diagonalization with overlap
     ethr =  1.03E-13,  avg # of iterations =  1.0

     total cpu time spent up to now is     6384.7 secs

     total energy              =   -2566.50928633 Ry
     estimated scf accuracy    <          1.7E-10 Ry

     total magnetization       =    -0.00 Bohr mag/cell
     absolute magnetization    =     0.00 Bohr mag/cell

     iteration # 67     ecut=    90.00 Ry     beta= 0.20
     Davidson diagonalization with overlap
     ethr =  1.03E-13,  avg # of iterations =  1.0

     total cpu time spent up to now is     6428.8 secs

     total energy              =   -2566.50928633 Ry
     estimated scf accuracy    <          3.0E-10 Ry

     total magnetization       =    -0.00 Bohr mag/cell
     absolute magnetization    =     0.00 Bohr mag/cell

     iteration # 68     ecut=    90.00 Ry     beta= 0.20
     Davidson diagonalization with overlap
     ethr =  1.03E-13,  avg # of iterations =  1.0

     total cpu time spent up to now is     6472.9 secs

     total energy              =   -2566.50928633 Ry
     estimated scf accuracy    <          1.9E-10 Ry

     total magnetization       =    -0.00 Bohr mag/cell
     absolute magnetization    =     0.00 Bohr mag/cell

     iteration # 69     ecut=    90.00 Ry     beta= 0.20
     Davidson diagonalization with overlap
     ethr =  1.03E-13,  avg # of iterations =  1.0

     total cpu time spent up to now is     6516.9 secs

     total energy              =   -2566.50928633 Ry
     estimated scf accuracy    <          4.8E-10 Ry

     total magnetization       =    -0.00 Bohr mag/cell
     absolute magnetization    =     0.00 Bohr mag/cell

     iteration # 70     ecut=    90.00 Ry     beta= 0.20
     Davidson diagonalization with overlap
     ethr =  1.03E-13,  avg # of iterations =  1.0

     total cpu time spent up to now is     6561.0 secs

     total energy              =   -2566.50928633 Ry
     estimated scf accuracy    <          7.6E-10 Ry

     total magnetization       =    -0.00 Bohr mag/cell
     absolute magnetization    =     0.00 Bohr mag/cell

     iteration # 71     ecut=    90.00 Ry     beta= 0.20
     Davidson diagonalization with overlap
     ethr =  1.03E-13,  avg # of iterations =  1.0

     total cpu time spent up to now is     6605.1 secs

     total energy              =   -2566.50928633 Ry
     estimated scf accuracy    <          3.4E-10 Ry

     total magnetization       =    -0.00 Bohr mag/cell
     absolute magnetization    =     0.00 Bohr mag/cell

     iteration # 72     ecut=    90.00 Ry     beta= 0.20
     Davidson diagonalization with overlap
     ethr =  1.03E-13,  avg # of iterations =  1.0

     total cpu time spent up to now is     6649.2 secs

     total energy              =   -2566.50928633 Ry
     estimated scf accuracy    <          4.2E-10 Ry

     total magnetization       =    -0.00 Bohr mag/cell
     absolute magnetization    =     0.00 Bohr mag/cell

     iteration # 73     ecut=    90.00 Ry     beta= 0.20
     Davidson diagonalization with overlap
     ethr =  1.03E-13,  avg # of iterations =  1.0

     Magnetic moment per site:
     atom:    1    charge:   16.2898    magn:   -0.0000    constr:    0.0000
     atom:    2    charge:   15.1690    magn:   -0.0000    constr:    0.0000
     atom:    3    charge:   16.2898    magn:   -0.0000    constr:    0.0000
     atom:    4    charge:   15.1690    magn:   -0.0001    constr:    0.0000
     atom:    5    charge:   16.2898    magn:   -0.0000    constr:    0.0000
     atom:    6    charge:   15.1689    magn:   -0.0000    constr:    0.0000
     atom:    7    charge:   16.2898    magn:   -0.0000    constr:    0.0000
     atom:    8    charge:   15.1689    magn:   -0.0000    constr:    0.0000

     total cpu time spent up to now is     6693.2 secs

     End of self-consistent calculation

     Number of k-points >= 100: set verbosity='high' to print the bands.

     the Fermi energy is    15.4923 ev

!    total energy              =   -2566.50928633 Ry
     estimated scf accuracy    <          1.1E-10 Ry
     smearing contrib. (-TS)   =      -0.01716442 Ry
     internal energy E=F+TS    =   -2566.49212191 Ry

     The total energy is F=E-TS. E is the sum of the following terms:
     one-electron contribution =   -1553.90574274 Ry
     hartree contribution      =     854.96228974 Ry
     xc contribution           =    -272.59949030 Ry
     ewald contribution        =   -1594.94917861 Ry

     total magnetization       =    -0.00 Bohr mag/cell
     absolute magnetization    =     0.00 Bohr mag/cell

     convergence has been achieved in  73 iterations

     Forces acting on atoms (cartesian axes, Ry/au):

     atom    1 type  1   force =    -0.00006889    0.00022941   -0.00016880
     atom    2 type  2   force =    -0.00015588   -0.00124305    0.00091286
     atom    3 type  1   force =    -0.00006937    0.00022938   -0.00016865
     atom    4 type  2   force =    -0.00015584   -0.00124334    0.00091285
     atom    5 type  1   force =    -0.00006478    0.00059583   -0.00043741
     atom    6 type  2   force =     0.00028853    0.00041715   -0.00030614
     atom    7 type  1   force =    -0.00006393    0.00059684   -0.00043831
     atom    8 type  2   force =     0.00029017    0.00041778   -0.00030640

     Total force =     0.002605     Total SCF correction =     0.000030


     Computing stress (Cartesian axis) and pressure

          total   stress  (Ry/bohr**3)                   (kbar)     P=       -3.11
  -0.00009487   0.00000000  -0.00000000          -13.96        0.00       -0.00
   0.00000000   0.00001586   0.00000012            0.00        2.33        0.02
  -0.00000000   0.00000012   0.00001559           -0.00        0.02        2.29

     Energy error            =      9.1E-06
     Gradient error          =      1.2E-03

     number of scf cycles    =   5
     number of bfgs steps    =   3

     energy   old            =   -2566.5092772150 Ry
     energy   new            =   -2566.5092863269 Ry

     CASE: energy  _new < energy  _old

     new trust radius        =       0.0195487732 bohr
     new conv_thr            =            1.0E-10 Ry


ATOMIC_POSITIONS (angstrom)
Ni            0.0022508140        2.3108573090       -0.0030364039
Co            2.3164111061       -0.0034105817        2.3084826398
Ni            0.0022550143        0.0072048036        2.3006149851
Co            2.3164162315        2.3002283075        0.0048338564
Ni            2.3227764514        0.0024111744        0.0131479167
Co            0.0046576831        2.3132527384        2.2988388420
Ni            2.3227468641        2.3060773390        2.3167957933
Co            0.0046332342        0.0095998372       -0.0048128944



     Writing output data file ./pwscf.save/
     NEW-OLD atomic charge density approx. for the potential

     Check: negative core charge=   -0.000012
     Generating pointlists ...

     total cpu time spent up to now is     6720.6 secs

     Self-consistent Calculation

     iteration #  1     ecut=    90.00 Ry     beta= 0.20
     Davidson diagonalization with overlap
     ethr =  1.00E-06,  avg # of iterations =  5.3

     total cpu time spent up to now is     6842.9 secs

     total energy              =   -2566.50932776 Ry
     estimated scf accuracy    <       0.00020923 Ry

     total magnetization       =    -0.00 Bohr mag/cell
     absolute magnetization    =     0.00 Bohr mag/cell

     iteration #  2     ecut=    90.00 Ry     beta= 0.20
     Davidson diagonalization with overlap
     ethr =  1.49E-07,  avg # of iterations =  1.6

     total cpu time spent up to now is     6890.3 secs

     total energy              =   -2566.50930911 Ry
     estimated scf accuracy    <       0.00009752 Ry

     total magnetization       =    -0.00 Bohr mag/cell
     absolute magnetization    =     0.00 Bohr mag/cell

     iteration #  3     ecut=    90.00 Ry     beta= 0.20
     Davidson diagonalization with overlap
     ethr =  6.97E-08,  avg # of iterations =  2.0

     total cpu time spent up to now is     6943.3 secs

     total energy              =   -2566.50925596 Ry
     estimated scf accuracy    <       0.00315636 Ry

     total magnetization       =    -0.00 Bohr mag/cell
     absolute magnetization    =     0.00 Bohr mag/cell

[...]

     total energy              =   -2566.50957050 Ry
     estimated scf accuracy    <          3.4E-09 Ry

     total magnetization       =    -0.00 Bohr mag/cell
     absolute magnetization    =     0.00 Bohr mag/cell

     iteration # 38     ecut=    90.00 Ry     beta= 0.20
     Davidson diagonalization with overlap
     ethr =  9.07E-13,  avg # of iterations =  1.0

     total cpu time spent up to now is    19728.5 secs

     total energy              =   -2566.50957050 Ry
     estimated scf accuracy    <          2.3E-09 Ry

     total magnetization       =    -0.00 Bohr mag/cell
     absolute magnetization    =     0.00 Bohr mag/cell

     iteration # 39     ecut=    90.00 Ry     beta= 0.20
     Davidson diagonalization with overlap
     ethr =  9.07E-13,  avg # of iterations =  1.0

     total cpu time spent up to now is    19772.0 secs

     total energy              =   -2566.50957050 Ry
     estimated scf accuracy    <          2.3E-09 Ry

     total magnetization       =    -0.00 Bohr mag/cell
     absolute magnetization    =     0.00 Bohr mag/cell

     iteration # 40     ecut=    90.00 Ry     beta= 0.20
     Davidson diagonalization with overlap
     ethr =  9.07E-13,  avg # of iterations =  1.0

     total cpu time spent up to now is    19815.5 secs

     total energy              =   -2566.50957050 Ry
     estimated scf accuracy    <          2.4E-09 Ry

     total magnetization       =    -0.00 Bohr mag/cell
     absolute magnetization    =     0.00 Bohr mag/cell

     iteration # 41     ecut=    90.00 Ry     beta= 0.20
     Davidson diagonalization with overlap
     ethr =  9.07E-13,  avg # of iterations =  1.0

     total cpu time spent up to now is    19859.0 secs

     total energy              =   -2566.50957050 Ry
     estimated scf accuracy    <          2.8E-09 Ry

     total magnetization       =    -0.00 Bohr mag/cell
     absolute magnetization    =     0.00 Bohr mag/cell

     iteration # 42     ecut=    90.00 Ry     beta= 0.20
     Davidson diagonalization with overlap
     ethr =  9.07E-13,  avg # of iterations =  1.0

     total cpu time spent up to now is    19902.5 secs

     total energy              =   -2566.50957050 Ry
     estimated scf accuracy    <          3.6E-09 Ry

     total magnetization       =    -0.00 Bohr mag/cell
     absolute magnetization    =     0.00 Bohr mag/cell

     iteration # 43     ecut=    90.00 Ry     beta= 0.20
     Davidson diagonalization with overlap
     ethr =  9.07E-13,  avg # of iterations =  1.0

     total cpu time spent up to now is    19946.0 secs

     total energy              =   -2566.50957050 Ry
     estimated scf accuracy    <          1.6E-09 Ry

     total magnetization       =     0.00 Bohr mag/cell
     absolute magnetization    =     0.00 Bohr mag/cell

     iteration # 44     ecut=    90.00 Ry     beta= 0.20
     Davidson diagonalization with overlap
     ethr =  9.07E-13,  avg # of iterations =  1.3

     total cpu time spent up to now is    19991.4 secs

     total energy              =   -2566.50957050 Ry
     estimated scf accuracy    <       0.00000001 Ry

     total magnetization       =     0.00 Bohr mag/cell
     absolute magnetization    =     0.00 Bohr mag/cell

     iteration # 45     ecut=    90.00 Ry     beta= 0.20
     Davidson diagonalization with overlap
     ethr =  9.07E-13,  avg # of iterations =  1.0

     total cpu time spent up to now is    20034.9 secs

     total energy              =   -2566.50957050 Ry
     estimated scf accuracy    <          3.2E-09 Ry

     total magnetization       =     0.00 Bohr mag/cell
     absolute magnetization    =     0.00 Bohr mag/cell

     iteration # 46     ecut=    90.00 Ry     beta= 0.20
     Davidson diagonalization with overlap
     ethr =  9.07E-13,  avg # of iterations =  1.0

     total cpu time spent up to now is    20078.4 secs

     total energy              =   -2566.50957050 Ry
     estimated scf accuracy    <          2.2E-09 Ry

     total magnetization       =     0.00 Bohr mag/cell
     absolute magnetization    =     0.00 Bohr mag/cell

     iteration # 47     ecut=    90.00 Ry     beta= 0.20
     Davidson diagonalization with overlap
     ethr =  9.07E-13,  avg # of iterations =  1.0

     total cpu time spent up to now is    20121.8 secs

     total energy              =   -2566.50957050 Ry
     estimated scf accuracy    <          1.5E-09 Ry

     total magnetization       =     0.00 Bohr mag/cell
     absolute magnetization    =     0.00 Bohr mag/cell

     iteration # 48     ecut=    90.00 Ry     beta= 0.20
     Davidson diagonalization with overlap
     ethr =  9.07E-13,  avg # of iterations =  1.0

     total cpu time spent up to now is    20165.4 secs

     total energy              =   -2566.50957050 Ry
     estimated scf accuracy    <          3.9E-09 Ry

     total magnetization       =     0.00 Bohr mag/cell
     absolute magnetization    =     0.00 Bohr mag/cell

     iteration # 49     ecut=    90.00 Ry     beta= 0.20
     Davidson diagonalization with overlap
     ethr =  9.07E-13,  avg # of iterations =  1.0

     total cpu time spent up to now is    20208.9 secs

     total energy              =   -2566.50957050 Ry
     estimated scf accuracy    <          4.8E-09 Ry

     total magnetization       =     0.00 Bohr mag/cell
     absolute magnetization    =     0.00 Bohr mag/cell

     iteration # 50     ecut=    90.00 Ry     beta= 0.20
     Davidson diagonalization with overlap
     ethr =  9.07E-13,  avg # of iterations =  1.0

     total cpu time spent up to now is    20252.4 secs

     total energy              =   -2566.50957050 Ry
     estimated scf accuracy    <          8.1E-10 Ry

     total magnetization       =     0.00 Bohr mag/cell
     absolute magnetization    =     0.00 Bohr mag/cell

     iteration # 51     ecut=    90.00 Ry     beta= 0.20
     Davidson diagonalization with overlap
     ethr =  5.77E-13,  avg # of iterations =  1.0

     total cpu time spent up to now is    20295.9 secs

     total energy              =   -2566.50957050 Ry
     estimated scf accuracy    <          1.4E-09 Ry

     total magnetization       =     0.00 Bohr mag/cell
     absolute magnetization    =     0.00 Bohr mag/cell

     iteration # 52     ecut=    90.00 Ry     beta= 0.20
     Davidson diagonalization with overlap
     ethr =  5.77E-13,  avg # of iterations =  1.0

     Magnetic moment per site:
     atom:    1    charge:   16.2214    magn:    0.0000    constr:    0.0000
     atom:    2    charge:   15.1023    magn:    0.0000    constr:    0.0000
     atom:    3    charge:   16.2214    magn:    0.0000    constr:    0.0000
     atom:    4    charge:   15.1023    magn:    0.0001    constr:    0.0000
     atom:    5    charge:   16.2227    magn:    0.0000    constr:    0.0000
     atom:    6    charge:   15.1012    magn:    0.0000    constr:    0.0000
     atom:    7    charge:   16.2227    magn:    0.0000    constr:    0.0000
     atom:    8    charge:   15.1013    magn:    0.0000    constr:    0.0000

     total cpu time spent up to now is    20339.3 secs

     End of self-consistent calculation

     Number of k-points >= 100: set verbosity='high' to print the bands.

     the Fermi energy is    15.4935 ev

!    total energy              =   -2566.50957050 Ry
     estimated scf accuracy    <          3.8E-10 Ry
     smearing contrib. (-TS)   =      -0.01700773 Ry
     internal energy E=F+TS    =   -2566.49256277 Ry

     The total energy is F=E-TS. E is the sum of the following terms:
     one-electron contribution =   -1554.17748235 Ry
     hartree contribution      =     855.08714535 Ry
     xc contribution           =    -272.59921066 Ry
     ewald contribution        =   -1594.80301511 Ry

     total magnetization       =     0.00 Bohr mag/cell
     absolute magnetization    =     0.00 Bohr mag/cell

     convergence has been achieved in  52 iterations

     Forces acting on atoms (cartesian axes, Ry/au):

     atom    1 type  1   force =    -0.00313909    0.00365665   -0.00454968
     atom    2 type  2   force =    -0.00198613    0.00761487    0.00382355
     atom    3 type  1   force =    -0.00314249    0.00365497   -0.00454972
     atom    4 type  2   force =    -0.00198644    0.00760672    0.00381568
     atom    5 type  1   force =     0.00208355   -0.01050361    0.00295103
     atom    6 type  2   force =     0.00302324   -0.00077310   -0.00222106
     atom    7 type  1   force =     0.00210012   -0.01048906    0.00295206
     atom    8 type  2   force =     0.00304724   -0.00076743   -0.00222186

     Total force =     0.022733     Total SCF correction =     0.000057


     Computing stress (Cartesian axis) and pressure

          total   stress  (Ry/bohr**3)                   (kbar)     P=       -2.59
  -0.00011131  -0.00000040   0.00000089          -16.37       -0.06        0.13
  -0.00000040   0.00004345  -0.00000158           -0.06        6.39       -0.23
   0.00000089  -0.00000158   0.00001506            0.13       -0.23        2.21

     Energy error            =      8.7E-05
     Gradient error          =      1.1E-02

     number of scf cycles    =  13
     number of bfgs steps    =  11

     energy   old            =   -2566.5094834191 Ry
     energy   new            =   -2566.5095705011 Ry

     CASE: energy  _new < energy  _old

     new trust radius        =       0.0441257320 bohr
     new conv_thr            =       0.0000000009 Ry


ATOMIC_POSITIONS (angstrom)
Ni            0.0107837574        2.3386732422       -0.0398130800
Co            2.3190406721       -0.0514133895        2.3513562080
Ni            0.0107743885        0.0350123664        2.2638306953
Co            2.3190533234        2.2521279959        0.0476861507
Ni            2.3641041143        0.0338845864        0.0503010851
Co            0.0428326322        2.3426873837        2.2549187470
Ni            2.3639726562        2.3376309931        2.3538889007
Co            0.0427943241        0.0390407093       -0.0487458894



     Writing output data file ./pwscf.save/
     NEW-OLD atomic charge density approx. for the potential

     Check: negative core charge=   -0.000012
     Generating pointlists ...
     new r_m :   0.1977 (alat units)  1.7295 (a.u.) for type    1
     new r_m :   0.1977 (alat units)  1.7295 (a.u.) for type    2

     total cpu time spent up to now is    20367.2 secs

     Self-consistent Calculation

     iteration #  1     ecut=    90.00 Ry     beta= 0.20
     Davidson diagonalization with overlap
     ethr =  1.00E-06,  avg # of iterations =  7.0

     total cpu time spent up to now is    20516.4 secs

     total energy              =   -2566.50966283 Ry
     estimated scf accuracy    <       0.00094942 Ry

     total magnetization       =     0.00 Bohr mag/cell
     absolute magnetization    =     0.00 Bohr mag/cell

     iteration #  2     ecut=    90.00 Ry     beta= 0.20
     Davidson diagonalization with overlap
     ethr =  6.78E-07,  avg # of iterations =  1.1

     total cpu time spent up to now is    20561.1 secs

     total energy              =   -2566.50936869 Ry
     estimated scf accuracy    <       0.01766609 Ry

     total magnetization       =     0.00 Bohr mag/cell
     absolute magnetization    =     0.00 Bohr mag/cell

     iteration #  3     ecut=    90.00 Ry     beta= 0.20
     Davidson diagonalization with overlap
     ethr =  6.78E-07,  avg # of iterations =  1.0

     total cpu time spent up to now is    20605.3 secs

     total energy              =   -2566.50962796 Ry
     estimated scf accuracy    <       0.00083200 Ry

     total magnetization       =     0.00 Bohr mag/cell
     absolute magnetization    =     0.00 Bohr mag/cell

     iteration #  4     ecut=    90.00 Ry     beta= 0.20
     Davidson diagonalization with overlap
     ethr =  5.94E-07,  avg # of iterations =  1.0

     total cpu time spent up to now is    20649.5 secs

     total energy              =   -2566.50957509 Ry
     estimated scf accuracy    <       0.00215441 Ry

     total magnetization       =     0.00 Bohr mag/cell
     absolute magnetization    =     0.00 Bohr mag/cell

     iteration #  5     ecut=    90.00 Ry     beta= 0.20
     Davidson diagonalization with overlap
     ethr =  5.94E-07,  avg # of iterations =  1.0

     total cpu time spent up to now is    20693.6 secs

     total energy              =   -2566.50965243 Ry
     estimated scf accuracy    <       0.00015317 Ry

     total magnetization       =     0.00 Bohr mag/cell
     absolute magnetization    =     0.00 Bohr mag/cell

     iteration #  6     ecut=    90.00 Ry     beta= 0.20
     Davidson diagonalization with overlap
     ethr =  1.09E-07,  avg # of iterations =  1.0

     total cpu time spent up to now is    20737.7 secs

     total energy              =   -2566.50965136 Ry
     estimated scf accuracy    <       0.00066190 Ry

     total magnetization       =     0.00 Bohr mag/cell
     absolute magnetization    =     0.00 Bohr mag/cell

     iteration #  7     ecut=    90.00 Ry     beta= 0.20
     Davidson diagonalization with overlap
     ethr =  1.09E-07,  avg # of iterations =  1.0

     total cpu time spent up to now is    20781.8 secs

     total energy              =   -2566.50966202 Ry
     estimated scf accuracy    <       0.00003401 Ry

     total magnetization       =     0.00 Bohr mag/cell
     absolute magnetization    =     0.00 Bohr mag/cell

     iteration #  8     ecut=    90.00 Ry     beta= 0.20
     Davidson diagonalization with overlap
     ethr =  2.43E-08,  avg # of iterations =  1.0

     total cpu time spent up to now is    20825.8 secs

     total energy              =   -2566.50966363 Ry
     estimated scf accuracy    <       0.00001686 Ry

     total magnetization       =     0.00 Bohr mag/cell
     absolute magnetization    =     0.00 Bohr mag/cell

     iteration #  9     ecut=    90.00 Ry     beta= 0.20
     Davidson diagonalization with overlap
     ethr =  1.20E-08,  avg # of iterations =  1.0

     total cpu time spent up to now is    20869.9 secs

     total energy              =   -2566.50966170 Ry
     estimated scf accuracy    <       0.00020973 Ry

     total magnetization       =     0.00 Bohr mag/cell
     absolute magnetization    =     0.00 Bohr mag/cell

     iteration # 10     ecut=    90.00 Ry     beta= 0.20
     Davidson diagonalization with overlap
     ethr =  1.20E-08,  avg # of iterations =  1.0

     total cpu time spent up to now is    20914.2 secs

     total energy              =   -2566.50966527 Ry
     estimated scf accuracy    <       0.00000230 Ry

     total magnetization       =     0.00 Bohr mag/cell
     absolute magnetization    =     0.00 Bohr mag/cell

     iteration # 11     ecut=    90.00 Ry     beta= 0.20
     Davidson diagonalization with overlap
     ethr =  1.64E-09,  avg # of iterations =  1.7

     total cpu time spent up to now is    20962.6 secs

     total energy              =   -2566.50966536 Ry
     estimated scf accuracy    <       0.00000973 Ry

     total magnetization       =     0.00 Bohr mag/cell
     absolute magnetization    =     0.00 Bohr mag/cell

     iteration # 12     ecut=    90.00 Ry     beta= 0.20
     Davidson diagonalization with overlap
     ethr =  1.64E-09,  avg # of iterations =  1.0

     total cpu time spent up to now is    21007.0 secs

     total energy              =   -2566.50966558 Ry
     estimated scf accuracy    <       0.00000877 Ry

     total magnetization       =     0.00 Bohr mag/cell
     absolute magnetization    =     0.00 Bohr mag/cell

     iteration # 13     ecut=    90.00 Ry     beta= 0.20
     Davidson diagonalization with overlap
     ethr =  1.64E-09,  avg # of iterations =  1.0

     total cpu time spent up to now is    21051.2 secs

     total energy              =   -2566.50966580 Ry
     estimated scf accuracy    <       0.00000022 Ry

     total magnetization       =     0.00 Bohr mag/cell
     absolute magnetization    =     0.00 Bohr mag/cell

     iteration # 14     ecut=    90.00 Ry     beta= 0.20
     Davidson diagonalization with overlap
     ethr =  1.60E-10,  avg # of iterations =  1.0

     total cpu time spent up to now is    21095.4 secs

     total energy              =   -2566.50966582 Ry
     estimated scf accuracy    <       0.00000018 Ry

     total magnetization       =     0.00 Bohr mag/cell
     absolute magnetization    =     0.00 Bohr mag/cell

     iteration # 15     ecut=    90.00 Ry     beta= 0.20
     Davidson diagonalization with overlap
     ethr =  1.30E-10,  avg # of iterations =  1.0

     total cpu time spent up to now is    21139.7 secs

     total energy              =   -2566.50966585 Ry
     estimated scf accuracy    <       0.00000025 Ry

     total magnetization       =     0.00 Bohr mag/cell
     absolute magnetization    =     0.00 Bohr mag/cell

     iteration # 16     ecut=    90.00 Ry     beta= 0.20
     Davidson diagonalization with overlap
     ethr =  1.30E-10,  avg # of iterations =  1.0

     total cpu time spent up to now is    21183.9 secs

     total energy              =   -2566.50966586 Ry
     estimated scf accuracy    <       0.00000039 Ry

     total magnetization       =     0.00 Bohr mag/cell
     absolute magnetization    =     0.01 Bohr mag/cell

     iteration # 17     ecut=    90.00 Ry     beta= 0.20
     Davidson diagonalization with overlap
     ethr =  1.30E-10,  avg # of iterations =  1.0

     total cpu time spent up to now is    21228.1 secs

     total energy              =   -2566.50966587 Ry
     estimated scf accuracy    <       0.00000004 Ry

     total magnetization       =     0.01 Bohr mag/cell
     absolute magnetization    =     0.01 Bohr mag/cell

     iteration # 18     ecut=    90.00 Ry     beta= 0.20
     Davidson diagonalization with overlap
     ethr =  3.17E-11,  avg # of iterations =  1.0

     total cpu time spent up to now is    21272.3 secs

     total energy              =   -2566.50966587 Ry
     estimated scf accuracy    <       0.00000007 Ry

     total magnetization       =     0.00 Bohr mag/cell
     absolute magnetization    =     0.00 Bohr mag/cell

     iteration # 19     ecut=    90.00 Ry     beta= 0.20
     Davidson diagonalization with overlap
     ethr =  3.17E-11,  avg # of iterations =  1.0

     total cpu time spent up to now is    21316.5 secs

     total energy              =   -2566.50966585 Ry
     estimated scf accuracy    <       0.00000054 Ry

     total magnetization       =     0.00 Bohr mag/cell
     absolute magnetization    =     0.00 Bohr mag/cell

     iteration # 20     ecut=    90.00 Ry     beta= 0.20
     Davidson diagonalization with overlap
     ethr =  3.17E-11,  avg # of iterations =  1.0

     total cpu time spent up to now is    21360.8 secs

     total energy              =   -2566.50966586 Ry
     estimated scf accuracy    <       0.00000001 Ry

     total magnetization       =     0.00 Bohr mag/cell
     absolute magnetization    =     0.00 Bohr mag/cell

     iteration # 21     ecut=    90.00 Ry     beta= 0.20
     Davidson diagonalization with overlap
     ethr =  8.93E-12,  avg # of iterations =  1.2

     total cpu time spent up to now is    21406.3 secs

     total energy              =   -2566.50966586 Ry
     estimated scf accuracy    <       0.00000003 Ry

     total magnetization       =     0.00 Bohr mag/cell
     absolute magnetization    =     0.00 Bohr mag/cell

     iteration # 22     ecut=    90.00 Ry     beta= 0.20
     Davidson diagonalization with overlap
     ethr =  8.93E-12,  avg # of iterations =  1.0

     total cpu time spent up to now is    21450.5 secs

     total energy              =   -2566.50966587 Ry
     estimated scf accuracy    <       0.00000002 Ry

     total magnetization       =     0.00 Bohr mag/cell
     absolute magnetization    =     0.00 Bohr mag/cell

     iteration # 23     ecut=    90.00 Ry     beta= 0.20
     Davidson diagonalization with overlap
     ethr =  8.93E-12,  avg # of iterations =  1.0
