 # File generated with Atomsk by kevin on 2022-03-20 17:48:01
 
           8  atoms
           2  atom types
 
      0.000000000000       4.607300000000  xlo xhi
      0.000000000000       4.630336500000  ylo yhi
      0.000000000000       4.607300000000  zlo zhi
 
Masses
 
            1   58.93319500             # Co
            2   0.00000000              # XX
 
Atoms # atomic
 
         1    1       -0.003426094146       0.002741089972       0.006091443248
         2    5        2.294832550204       2.307061533482       2.295785971115
         3    1       -0.003426094146       2.317909339972       2.309741443248
         4    5        2.294832550204      -0.008106716518      -0.007864028885
         5    1        2.300223905854       2.317909339972       0.006091443248
         6    5       -0.003426094146       0.002741089972       2.309741443248
         7    1        2.300223905854       0.002741089972       2.309741443248
         8    5       -0.003426094146       2.317909339972       0.006091443248
