
     Program PWSCF v.6.7MaX starts on 21Mar2022 at 13:59:35 

     This program is part of the open-source Quantum ESPRESSO suite
     for quantum simulation of materials; please cite
         "P. Giannozzi et al., J. Phys.:Condens. Matter 21 395502 (2009);
         "P. Giannozzi et al., J. Phys.:Condens. Matter 29 465901 (2017);
          URL http://www.quantum-espresso.org", 
     in publications or presentations arising from this work. More details at
     http://www.quantum-espresso.org/quote

     Parallel version (MPI), running on    24 processors

     MPI processes distributed on     1 nodes
     R & G space division:  proc/nbgrp/npool/nimage =      24
     Reading input from /home/kevin/QE_CoCrFeMnNi/CoCrFeMnNi/Opt/binary/Opt-B1-CoNi/Mix/elastic/Chg_2-B1-CoNi.in

     Current dimensions of program PWSCF are:
     Max number of different atomic species (ntypx) = 10
     Max number of k-points (npk) =  40000
     Max angular momentum in pseudopotentials (lmaxx) =  3

     Subspace diagonalization in iterative solution of the eigenvalue problem:
     a serial algorithm will be used

     Found symmetry operation: I + (  0.0000  0.5000  0.5000)
     This is a supercell, fractional translations are disabled

     Parallelization info
     --------------------
     sticks:   dense  smooth     PW     G-vecs:    dense   smooth      PW
     Min         273      90     25                16561     3188     481
     Max         274      91     27                16563     3193     484
     Sum        6553    2181    617               397487    76581   11577



     bravais-lattice index     =            0
     lattice parameter (alat)  =       8.7065  a.u.
     unit-cell volume          =     663.2880 (a.u.)^3
     number of atoms/cell      =            8
     number of atomic types    =            2
     number of electrons       =       140.00
     number of Kohn-Sham states=           84
     kinetic-energy cutoff     =      90.0000  Ry
     charge density cutoff     =    1080.0000  Ry
     scf convergence threshold =      1.0E-08
     mixing beta               =       0.2000
     number of iterations used =            8  plain     mixing
     energy convergence thresh.=      1.0E-05
     force convergence thresh. =      1.0E-04
     Exchange-correlation= SLA  PW   PBE  PBE
                           (   1   4   3   4   0   0   0)
     nstep                     =          100


     celldm(1)=   8.706535  celldm(2)=   0.000000  celldm(3)=   0.000000
     celldm(4)=   0.000000  celldm(5)=   0.000000  celldm(6)=   0.000000

     crystal axes: (cart. coord. in units of alat)
               a(1) = (   1.000000   0.000000   0.000000 )  
               a(2) = (   0.000000   1.005000   0.000000 )  
               a(3) = (   0.000000   0.000000   1.000000 )  

     reciprocal axes: (cart. coord. in units 2 pi/alat)
               b(1) = (  1.000000  0.000000  0.000000 )  
               b(2) = (  0.000000  0.995025  0.000000 )  
               b(3) = (  0.000000  0.000000  1.000000 )  


     PseudoPot. # 1 for Ni read from file:
     /opt/QEpot/SSSP_efficiency_pseudos/ni_pbe_v1.4.uspp.F.UPF
     MD5 check sum: 1ee80287db30b12d2bc1f57a5b5d6409
     Pseudo is Ultrasoft + core correction, Zval = 18.0
     Generated by new atomic code, or converted to UPF format
     Using radial grid of  865 points,  6 beta functions with: 
                l(1) =   0
                l(2) =   0
                l(3) =   1
                l(4) =   1
                l(5) =   2
                l(6) =   2
     Q(r) pseudized with 10 coefficients,  rinner =    0.980   0.980   0.980
                                                       0.980   0.980

     PseudoPot. # 2 for Co read from file:
     /opt/QEpot/SSSP_efficiency_pseudos/Co_pbe_v1.2.uspp.F.UPF
     MD5 check sum: 5f91765df6ddd3222702df6e7b74a16d
     Pseudo is Ultrasoft + core correction, Zval = 17.0
     Generated by new atomic code, or converted to UPF format
     Using radial grid of  863 points,  6 beta functions with: 
                l(1) =   0
                l(2) =   0
                l(3) =   1
                l(4) =   1
                l(5) =   2
                l(6) =   2
     Q(r) pseudized with  8 coefficients,  rinner =    1.200   1.200   1.200
                                                       1.200   1.200

     atomic species   valence    mass     pseudopotential
        Ni            18.00    58.69300     Ni( 1.00)
        Co            17.00    58.93300     Co( 1.00)

     Starting magnetic structure 
     atomic species   magnetization
        Ni           0.000
        Co           0.000

     No symmetry found



   Cartesian axes

     site n.     atom                  positions (alat units)
         1           Ni  tau(   1) = (  -0.0007436   0.5030949   0.0013221  )
         2           Co  tau(   2) = (   0.4992564   0.0005949   0.5013221  )
         3           Ni  tau(   3) = (  -0.0007436   0.0005949   0.5013221  )
         4           Co  tau(   4) = (   0.4992564   0.5030949   0.0013221  )
         5           Ni  tau(   5) = (   0.4980862  -0.0017595  -0.0017069  )
         6           Co  tau(   6) = (  -0.0007436   0.5030949   0.5013221  )
         7           Ni  tau(   7) = (   0.4980862   0.5007405   0.4982931  )
         8           Co  tau(   8) = (  -0.0007436   0.0005949   0.0013221  )

     number of k points=   112  Gaussian smearing, width (Ry)=  0.0100

     Number of k-points >= 100: set verbosity='high' to print them.

     Dense  grid:   397487 G-vectors     FFT dimensions: (  96,  96,  96)

     Smooth grid:    76581 G-vectors     FFT dimensions: (  54,  54,  54)

     Estimated max dynamical RAM per process >     188.39 MB

     Estimated total dynamical RAM >       4.42 GB

     Check: negative core charge=   -0.000012
     Generating pointlists ...
     new r_m :   0.2050 (alat units)  1.7849 (a.u.) for type    1
     new r_m :   0.2050 (alat units)  1.7849 (a.u.) for type    2

     Initial potential from superposition of free atoms

     starting charge  127.99997, renormalised to  140.00000
     Starting wfcs are  104 randomized atomic wfcs

     total cpu time spent up to now is       21.8 secs

     Self-consistent Calculation

     iteration #  1     ecut=    90.00 Ry     beta= 0.20
     Davidson diagonalization with overlap
     ethr =  1.00E-02,  avg # of iterations =  3.1

     total cpu time spent up to now is      102.8 secs

     total energy              =   -2550.46133432 Ry
     estimated scf accuracy    <     161.94820796 Ry

     total magnetization       =     0.00 Bohr mag/cell
     absolute magnetization    =     0.00 Bohr mag/cell

     iteration #  2     ecut=    90.00 Ry     beta= 0.20
     Davidson diagonalization with overlap
     ethr =  1.00E-02,  avg # of iterations =  4.6

     total cpu time spent up to now is      190.7 secs

     total energy              =   -2559.45750962 Ry
     estimated scf accuracy    <      32.58315969 Ry

     total magnetization       =     0.00 Bohr mag/cell
     absolute magnetization    =     0.01 Bohr mag/cell

     iteration #  3     ecut=    90.00 Ry     beta= 0.20
     Davidson diagonalization with overlap
     ethr =  1.00E-02,  avg # of iterations =  3.2

     total cpu time spent up to now is      253.4 secs

     total energy              =   -2563.89833574 Ry
     estimated scf accuracy    <      53.22146152 Ry

     total magnetization       =     0.00 Bohr mag/cell
     absolute magnetization    =     0.00 Bohr mag/cell

     iteration #  4     ecut=    90.00 Ry     beta= 0.20
     Davidson diagonalization with overlap
     ethr =  1.00E-02,  avg # of iterations =  2.1

     total cpu time spent up to now is      305.2 secs

     total energy              =   -2566.33489363 Ry
     estimated scf accuracy    <       0.78137441 Ry

     total magnetization       =    -0.00 Bohr mag/cell
     absolute magnetization    =     0.00 Bohr mag/cell

     iteration #  5     ecut=    90.00 Ry     beta= 0.20
     Davidson diagonalization with overlap
     ethr =  5.58E-04,  avg # of iterations =  2.5

     total cpu time spent up to now is      363.9 secs

     total energy              =   -2566.51799174 Ry
     estimated scf accuracy    <       1.34019480 Ry

     total magnetization       =     0.00 Bohr mag/cell
     absolute magnetization    =     0.00 Bohr mag/cell

     iteration #  6     ecut=    90.00 Ry     beta= 0.20
     Davidson diagonalization with overlap
     ethr =  5.58E-04,  avg # of iterations =  1.1

     total cpu time spent up to now is      407.7 secs

     total energy              =   -2566.51508537 Ry
     estimated scf accuracy    <       0.38527622 Ry

     total magnetization       =     0.00 Bohr mag/cell
     absolute magnetization    =     0.00 Bohr mag/cell

     iteration #  7     ecut=    90.00 Ry     beta= 0.20
     Davidson diagonalization with overlap
     ethr =  2.75E-04,  avg # of iterations =  1.2

     total cpu time spent up to now is      452.1 secs

     total energy              =   -2566.50768841 Ry
     estimated scf accuracy    <       0.18966103 Ry

     total magnetization       =     0.00 Bohr mag/cell
     absolute magnetization    =     0.00 Bohr mag/cell

     iteration #  8     ecut=    90.00 Ry     beta= 0.20
     Davidson diagonalization with overlap
     ethr =  1.35E-04,  avg # of iterations =  1.4

     total cpu time spent up to now is      497.0 secs

     total energy              =   -2566.50613991 Ry
     estimated scf accuracy    <       0.07687508 Ry

     total magnetization       =     0.00 Bohr mag/cell
     absolute magnetization    =     0.00 Bohr mag/cell

     iteration #  9     ecut=    90.00 Ry     beta= 0.20
     Davidson diagonalization with overlap
     ethr =  5.49E-05,  avg # of iterations =  1.7

     total cpu time spent up to now is      543.8 secs

     total energy              =   -2566.49440457 Ry
     estimated scf accuracy    <       0.11111141 Ry

     total magnetization       =     0.00 Bohr mag/cell
     absolute magnetization    =     0.00 Bohr mag/cell

     iteration # 10     ecut=    90.00 Ry     beta= 0.20
     Davidson diagonalization with overlap
     ethr =  5.49E-05,  avg # of iterations =  2.0

     total cpu time spent up to now is      594.6 secs

     total energy              =   -2566.51598159 Ry
     estimated scf accuracy    <       0.10992824 Ry

     total magnetization       =     0.00 Bohr mag/cell
     absolute magnetization    =     0.00 Bohr mag/cell

     iteration # 11     ecut=    90.00 Ry     beta= 0.20
     Davidson diagonalization with overlap
     ethr =  5.49E-05,  avg # of iterations =  1.0

     total cpu time spent up to now is      638.2 secs

     total energy              =   -2566.50540188 Ry
     estimated scf accuracy    <       0.18777037 Ry

     total magnetization       =     0.00 Bohr mag/cell
     absolute magnetization    =     0.00 Bohr mag/cell

     iteration # 12     ecut=    90.00 Ry     beta= 0.20
     Davidson diagonalization with overlap
     ethr =  5.49E-05,  avg # of iterations =  1.0

     total cpu time spent up to now is      681.8 secs

     total energy              =   -2566.50834725 Ry
     estimated scf accuracy    <       0.01780059 Ry

     total magnetization       =     0.00 Bohr mag/cell
     absolute magnetization    =     0.00 Bohr mag/cell

     iteration # 13     ecut=    90.00 Ry     beta= 0.20
     Davidson diagonalization with overlap
     ethr =  1.27E-05,  avg # of iterations =  1.1

     total cpu time spent up to now is      726.0 secs

     total energy              =   -2566.50922717 Ry
     estimated scf accuracy    <       0.00013499 Ry

     total magnetization       =     0.00 Bohr mag/cell
     absolute magnetization    =     0.00 Bohr mag/cell

     iteration # 14     ecut=    90.00 Ry     beta= 0.20
     Davidson diagonalization with overlap
     ethr =  9.64E-08,  avg # of iterations =  2.6

     total cpu time spent up to now is      781.6 secs

     total energy              =   -2566.50923336 Ry
     estimated scf accuracy    <       0.00009733 Ry

     total magnetization       =     0.00 Bohr mag/cell
     absolute magnetization    =     0.00 Bohr mag/cell

     iteration # 15     ecut=    90.00 Ry     beta= 0.20
     Davidson diagonalization with overlap
     ethr =  6.95E-08,  avg # of iterations =  1.1

     total cpu time spent up to now is      825.5 secs

     total energy              =   -2566.50923061 Ry
     estimated scf accuracy    <       0.00013036 Ry

     total magnetization       =     0.00 Bohr mag/cell
     absolute magnetization    =     0.00 Bohr mag/cell

     iteration # 16     ecut=    90.00 Ry     beta= 0.20
     Davidson diagonalization with overlap
     ethr =  6.95E-08,  avg # of iterations =  1.0

     total cpu time spent up to now is      869.2 secs

     total energy              =   -2566.50922732 Ry
     estimated scf accuracy    <       0.00008585 Ry

     total magnetization       =     0.00 Bohr mag/cell
     absolute magnetization    =     0.00 Bohr mag/cell

     iteration # 17     ecut=    90.00 Ry     beta= 0.20
     Davidson diagonalization with overlap
     ethr =  6.13E-08,  avg # of iterations =  1.1

     total cpu time spent up to now is      912.9 secs

     total energy              =   -2566.50921597 Ry
     estimated scf accuracy    <       0.00075732 Ry

     total magnetization       =     0.00 Bohr mag/cell
     absolute magnetization    =     0.00 Bohr mag/cell

     iteration # 18     ecut=    90.00 Ry     beta= 0.20
     Davidson diagonalization with overlap
     ethr =  6.13E-08,  avg # of iterations =  1.1

     total cpu time spent up to now is      957.3 secs

     total energy              =   -2566.50921164 Ry
     estimated scf accuracy    <       0.00119875 Ry

     total magnetization       =     0.00 Bohr mag/cell
     absolute magnetization    =     0.00 Bohr mag/cell

     iteration # 19     ecut=    90.00 Ry     beta= 0.20
     Davidson diagonalization with overlap
     ethr =  6.13E-08,  avg # of iterations =  1.0

     total cpu time spent up to now is     1000.9 secs

     total energy              =   -2566.50923061 Ry
     estimated scf accuracy    <       0.00002616 Ry

     total magnetization       =     0.00 Bohr mag/cell
     absolute magnetization    =     0.00 Bohr mag/cell

     iteration # 20     ecut=    90.00 Ry     beta= 0.20
     Davidson diagonalization with overlap
     ethr =  1.87E-08,  avg # of iterations =  1.0

     total cpu time spent up to now is     1044.4 secs

     total energy              =   -2566.50923071 Ry
     estimated scf accuracy    <       0.00000641 Ry

     total magnetization       =     0.00 Bohr mag/cell
     absolute magnetization    =     0.00 Bohr mag/cell

     iteration # 21     ecut=    90.00 Ry     beta= 0.20
     Davidson diagonalization with overlap
     ethr =  4.58E-09,  avg # of iterations =  1.0

     total cpu time spent up to now is     1088.2 secs

     total energy              =   -2566.50922955 Ry
     estimated scf accuracy    <       0.00007715 Ry

     total magnetization       =     0.00 Bohr mag/cell
     absolute magnetization    =     0.00 Bohr mag/cell

     iteration # 22     ecut=    90.00 Ry     beta= 0.20
     Davidson diagonalization with overlap
     ethr =  4.58E-09,  avg # of iterations =  1.0

     total cpu time spent up to now is     1131.6 secs

     total energy              =   -2566.50923080 Ry
     estimated scf accuracy    <       0.00000131 Ry

     total magnetization       =     0.00 Bohr mag/cell
     absolute magnetization    =     0.00 Bohr mag/cell

     iteration # 23     ecut=    90.00 Ry     beta= 0.20
     Davidson diagonalization with overlap
     ethr =  9.33E-10,  avg # of iterations =  1.5

     total cpu time spent up to now is     1178.5 secs

     total energy              =   -2566.50923072 Ry
     estimated scf accuracy    <       0.00000222 Ry

     total magnetization       =     0.00 Bohr mag/cell
     absolute magnetization    =     0.01 Bohr mag/cell

     iteration # 24     ecut=    90.00 Ry     beta= 0.20
     Davidson diagonalization with overlap
     ethr =  9.33E-10,  avg # of iterations =  1.0

     total cpu time spent up to now is     1222.0 secs

     total energy              =   -2566.50923079 Ry
     estimated scf accuracy    <       0.00000137 Ry

     total magnetization       =     0.00 Bohr mag/cell
     absolute magnetization    =     0.01 Bohr mag/cell

     iteration # 25     ecut=    90.00 Ry     beta= 0.20
     Davidson diagonalization with overlap
     ethr =  9.33E-10,  avg # of iterations =  1.0

     total cpu time spent up to now is     1265.4 secs

     total energy              =   -2566.50923082 Ry
     estimated scf accuracy    <       0.00000079 Ry

     total magnetization       =     0.00 Bohr mag/cell
     absolute magnetization    =     0.01 Bohr mag/cell

     iteration # 26     ecut=    90.00 Ry     beta= 0.20
     Davidson diagonalization with overlap
     ethr =  5.61E-10,  avg # of iterations =  1.0

     total cpu time spent up to now is     1308.9 secs

     total energy              =   -2566.50923085 Ry
     estimated scf accuracy    <       0.00000023 Ry

     total magnetization       =     0.00 Bohr mag/cell
     absolute magnetization    =     0.01 Bohr mag/cell

     iteration # 27     ecut=    90.00 Ry     beta= 0.20
     Davidson diagonalization with overlap
     ethr =  1.67E-10,  avg # of iterations =  1.0

     total cpu time spent up to now is     1352.8 secs

     total energy              =   -2566.50923086 Ry
     estimated scf accuracy    <       0.00000040 Ry

     total magnetization       =     0.00 Bohr mag/cell
     absolute magnetization    =     0.01 Bohr mag/cell

     iteration # 28     ecut=    90.00 Ry     beta= 0.20
     Davidson diagonalization with overlap
     ethr =  1.67E-10,  avg # of iterations =  1.0

     total cpu time spent up to now is     1397.0 secs

     total energy              =   -2566.50923087 Ry
     estimated scf accuracy    <       0.00000028 Ry

     total magnetization       =     0.00 Bohr mag/cell
     absolute magnetization    =     0.01 Bohr mag/cell

     iteration # 29     ecut=    90.00 Ry     beta= 0.20
     Davidson diagonalization with overlap
     ethr =  1.67E-10,  avg # of iterations =  1.0

     total cpu time spent up to now is     1441.1 secs

     total energy              =   -2566.50923085 Ry
     estimated scf accuracy    <       0.00000013 Ry

     total magnetization       =     0.00 Bohr mag/cell
     absolute magnetization    =     0.01 Bohr mag/cell

     iteration # 30     ecut=    90.00 Ry     beta= 0.20
     Davidson diagonalization with overlap
     ethr =  9.54E-11,  avg # of iterations =  1.0

     total cpu time spent up to now is     1485.3 secs

     total energy              =   -2566.50923084 Ry
     estimated scf accuracy    <       0.00000027 Ry

     total magnetization       =     0.00 Bohr mag/cell
     absolute magnetization    =     0.01 Bohr mag/cell

     iteration # 31     ecut=    90.00 Ry     beta= 0.20
     Davidson diagonalization with overlap
     ethr =  9.54E-11,  avg # of iterations =  1.0

     total cpu time spent up to now is     1529.6 secs

     total energy              =   -2566.50923081 Ry
     estimated scf accuracy    <       0.00000011 Ry

     total magnetization       =     0.00 Bohr mag/cell
     absolute magnetization    =     0.01 Bohr mag/cell

     iteration # 32     ecut=    90.00 Ry     beta= 0.20
     Davidson diagonalization with overlap
     ethr =  7.71E-11,  avg # of iterations =  1.0

     total cpu time spent up to now is     1573.8 secs

     total energy              =   -2566.50923081 Ry
     estimated scf accuracy    <       0.00000011 Ry

     total magnetization       =     0.00 Bohr mag/cell
     absolute magnetization    =     0.00 Bohr mag/cell

     iteration # 33     ecut=    90.00 Ry     beta= 0.20
     Davidson diagonalization with overlap
     ethr =  7.57E-11,  avg # of iterations =  1.0

     total cpu time spent up to now is     1618.0 secs

     total energy              =   -2566.50923080 Ry
     estimated scf accuracy    <       0.00000032 Ry

     total magnetization       =     0.00 Bohr mag/cell
     absolute magnetization    =     0.00 Bohr mag/cell

     iteration # 34     ecut=    90.00 Ry     beta= 0.20
     Davidson diagonalization with overlap
     ethr =  7.57E-11,  avg # of iterations =  1.0

     total cpu time spent up to now is     1662.3 secs

     total energy              =   -2566.50923080 Ry
     estimated scf accuracy    <       0.00000021 Ry

     total magnetization       =     0.00 Bohr mag/cell
     absolute magnetization    =     0.00 Bohr mag/cell

     iteration # 35     ecut=    90.00 Ry     beta= 0.20
     Davidson diagonalization with overlap
     ethr =  7.57E-11,  avg # of iterations =  1.0

     total cpu time spent up to now is     1706.5 secs

     total energy              =   -2566.50923080 Ry
     estimated scf accuracy    <       0.00000009 Ry

     total magnetization       =    -0.00 Bohr mag/cell
     absolute magnetization    =     0.00 Bohr mag/cell

     iteration # 36     ecut=    90.00 Ry     beta= 0.20
     Davidson diagonalization with overlap
     ethr =  6.32E-11,  avg # of iterations =  1.0

     total cpu time spent up to now is     1750.6 secs

     total energy              =   -2566.50923080 Ry
     estimated scf accuracy    <       0.00000008 Ry

     total magnetization       =    -0.00 Bohr mag/cell
     absolute magnetization    =     0.00 Bohr mag/cell

     iteration # 37     ecut=    90.00 Ry     beta= 0.20
     Davidson diagonalization with overlap
     ethr =  5.89E-11,  avg # of iterations =  1.0

     total cpu time spent up to now is     1794.7 secs

     total energy              =   -2566.50923079 Ry
     estimated scf accuracy    <       0.00000038 Ry

     total magnetization       =    -0.00 Bohr mag/cell
     absolute magnetization    =     0.00 Bohr mag/cell

     iteration # 38     ecut=    90.00 Ry     beta= 0.20
     Davidson diagonalization with overlap
     ethr =  5.89E-11,  avg # of iterations =  1.0

     total cpu time spent up to now is     1838.8 secs

     total energy              =   -2566.50923080 Ry
     estimated scf accuracy    <       0.00000039 Ry

     total magnetization       =    -0.00 Bohr mag/cell
     absolute magnetization    =     0.00 Bohr mag/cell

     iteration # 39     ecut=    90.00 Ry     beta= 0.20
     Davidson diagonalization with overlap
     ethr =  5.89E-11,  avg # of iterations =  1.0

     total cpu time spent up to now is     1883.0 secs

     total energy              =   -2566.50923080 Ry
     estimated scf accuracy    <       0.00000008 Ry

     total magnetization       =    -0.00 Bohr mag/cell
     absolute magnetization    =     0.00 Bohr mag/cell

     iteration # 40     ecut=    90.00 Ry     beta= 0.20
     Davidson diagonalization with overlap
     ethr =  5.87E-11,  avg # of iterations =  1.0

     total cpu time spent up to now is     1927.2 secs

     total energy              =   -2566.50923080 Ry
     estimated scf accuracy    <       0.00000007 Ry

     total magnetization       =    -0.00 Bohr mag/cell
     absolute magnetization    =     0.00 Bohr mag/cell

     iteration # 41     ecut=    90.00 Ry     beta= 0.20
     Davidson diagonalization with overlap
     ethr =  5.02E-11,  avg # of iterations =  1.0

     total cpu time spent up to now is     1971.3 secs

     total energy              =   -2566.50923080 Ry
     estimated scf accuracy    <       0.00000001 Ry

     total magnetization       =    -0.00 Bohr mag/cell
     absolute magnetization    =     0.00 Bohr mag/cell

     iteration # 42     ecut=    90.00 Ry     beta= 0.20
     Davidson diagonalization with overlap
     ethr =  7.37E-12,  avg # of iterations =  1.0

     total cpu time spent up to now is     2015.3 secs

     total energy              =   -2566.50923080 Ry
     estimated scf accuracy    <       0.00000001 Ry

     total magnetization       =    -0.00 Bohr mag/cell
     absolute magnetization    =     0.00 Bohr mag/cell

     iteration # 43     ecut=    90.00 Ry     beta= 0.20
     Davidson diagonalization with overlap
     ethr =  7.37E-12,  avg # of iterations =  1.0

     Magnetic moment per site:
     atom:    1    charge:   16.2810    magn:   -0.0001    constr:    0.0000
     atom:    2    charge:   15.1603    magn:   -0.0007    constr:    0.0000
     atom:    3    charge:   16.2810    magn:   -0.0002    constr:    0.0000
     atom:    4    charge:   15.1603    magn:   -0.0001    constr:    0.0000
     atom:    5    charge:   16.2811    magn:   -0.0001    constr:    0.0000
     atom:    6    charge:   15.1602    magn:   -0.0003    constr:    0.0000
     atom:    7    charge:   16.2811    magn:   -0.0002    constr:    0.0000
     atom:    8    charge:   15.1602    magn:   -0.0001    constr:    0.0000

     total cpu time spent up to now is     2059.3 secs

     End of self-consistent calculation

     Number of k-points >= 100: set verbosity='high' to print the bands.

     the Fermi energy is    15.4925 ev

!    total energy              =   -2566.50923081 Ry
     estimated scf accuracy    <          9.8E-09 Ry
     smearing contrib. (-TS)   =      -0.01714373 Ry
     internal energy E=F+TS    =   -2566.49208708 Ry

     The total energy is F=E-TS. E is the sum of the following terms:
     one-electron contribution =   -1553.94385591 Ry
     hartree contribution      =     854.98061580 Ry
     xc contribution           =    -272.59962377 Ry
     ewald contribution        =   -1594.92922319 Ry

     total magnetization       =    -0.00 Bohr mag/cell
     absolute magnetization    =     0.00 Bohr mag/cell

     convergence has been achieved in  43 iterations

     Forces acting on atoms (cartesian axes, Ry/au):

     atom    1 type  1   force =    -0.00008221    0.00008184    0.00006686
     atom    2 type  2   force =     0.00061054   -0.00160768   -0.00231923
     atom    3 type  1   force =    -0.00008243    0.00008192    0.00006682
     atom    4 type  2   force =     0.00061061   -0.00160709   -0.00231915
     atom    5 type  1   force =     0.00066891    0.00092547    0.00145777
     atom    6 type  2   force =    -0.00119722    0.00060009    0.00079495
     atom    7 type  1   force =     0.00066875    0.00092554    0.00145782
     atom    8 type  2   force =    -0.00119696    0.00059991    0.00079415

     Total force =     0.005330     Total SCF correction =     0.000017


     Computing stress (Cartesian axis) and pressure

          total   stress  (Ry/bohr**3)                   (kbar)     P=       -3.03
   0.00001528  -0.00000004  -0.00000006            2.25       -0.01       -0.01
  -0.00000004  -0.00009402  -0.00000050           -0.01      -13.83       -0.07
  -0.00000006  -0.00000050   0.00001695           -0.01       -0.07        2.49

     Energy error            =      3.2E-05
     Gradient error          =      2.3E-03

     number of scf cycles    =   2
     number of bfgs steps    =   1

     energy   old            =   -2566.5092631241 Ry
     energy   new            =   -2566.5092308057 Ry

     CASE: energy  _new > energy  _old

     new trust radius        =       0.0123536695 bohr
     new conv_thr            =       0.0000000100 Ry


ATOMIC_POSITIONS (angstrom)
Ni           -0.0009666581        2.3194646482        0.0024946186
Co            2.3026833419        0.0042963982        2.3061446186
Ni           -0.0009666581        0.0042963982        2.3061446186
Co            2.3026833419        2.3194646482        0.0024946186
Ni            2.3021114245       -0.0061206602        0.0028092314
Co           -0.0009666581        2.3194646482        2.3061446186
Ni            2.3021114245        2.3090475898        2.3064592314
Co           -0.0009666581        0.0042963982        0.0024946186



     Writing output data file ./pwscf.save/
     NEW-OLD atomic charge density approx. for the potential

     Check: negative core charge=   -0.000012
     Generating pointlists ...

     total cpu time spent up to now is     2086.8 secs

     Self-consistent Calculation

     iteration #  1     ecut=    90.00 Ry     beta= 0.20
     Davidson diagonalization with overlap
     ethr =  1.00E-06,  avg # of iterations =  6.1

     total cpu time spent up to now is     2210.2 secs

     total energy              =   -2566.50928689 Ry
     estimated scf accuracy    <       0.00040055 Ry

     total magnetization       =    -0.00 Bohr mag/cell
     absolute magnetization    =     0.00 Bohr mag/cell

     iteration #  2     ecut=    90.00 Ry     beta= 0.20
     Davidson diagonalization with overlap
     ethr =  2.86E-07,  avg # of iterations =  1.4

     total cpu time spent up to now is     2256.4 secs

     total energy              =   -2566.50925716 Ry
     estimated scf accuracy    <       0.00018293 Ry

     total magnetization       =    -0.00 Bohr mag/cell
     absolute magnetization    =     0.00 Bohr mag/cell

     iteration #  3     ecut=    90.00 Ry     beta= 0.20
     Davidson diagonalization with overlap
     ethr =  1.31E-07,  avg # of iterations =  2.0

     total cpu time spent up to now is     2308.0 secs

     total energy              =   -2566.50913419 Ry
     estimated scf accuracy    <       0.00818302 Ry

     total magnetization       =    -0.00 Bohr mag/cell
     absolute magnetization    =     0.00 Bohr mag/cell

     iteration #  4     ecut=    90.00 Ry     beta= 0.20
     Davidson diagonalization with overlap
     ethr =  1.31E-07,  avg # of iterations =  1.9

     total cpu time spent up to now is     2357.9 secs

     total energy              =   -2566.50926553 Ry
     estimated scf accuracy    <       0.00033690 Ry

     total magnetization       =    -0.01 Bohr mag/cell
     absolute magnetization    =     0.01 Bohr mag/cell

     iteration #  5     ecut=    90.00 Ry     beta= 0.20
     Davidson diagonalization with overlap
     ethr =  1.31E-07,  avg # of iterations =  1.0

     total cpu time spent up to now is     2401.6 secs

     total energy              =   -2566.50927505 Ry
     estimated scf accuracy    <       0.00002185 Ry

     total magnetization       =    -0.01 Bohr mag/cell
     absolute magnetization    =     0.01 Bohr mag/cell

     iteration #  6     ecut=    90.00 Ry     beta= 0.20
     Davidson diagonalization with overlap
     ethr =  1.56E-08,  avg # of iterations =  1.9

     total cpu time spent up to now is     2451.7 secs

     total energy              =   -2566.50926557 Ry
     estimated scf accuracy    <       0.00069141 Ry

     total magnetization       =    -0.01 Bohr mag/cell
     absolute magnetization    =     0.01 Bohr mag/cell

     iteration #  7     ecut=    90.00 Ry     beta= 0.20
     Davidson diagonalization with overlap
     ethr =  1.56E-08,  avg # of iterations =  1.1

     total cpu time spent up to now is     2495.9 secs

     total energy              =   -2566.50927681 Ry
     estimated scf accuracy    <       0.00000477 Ry

     total magnetization       =    -0.01 Bohr mag/cell
     absolute magnetization    =     0.01 Bohr mag/cell

     iteration #  8     ecut=    90.00 Ry     beta= 0.20
     Davidson diagonalization with overlap
     ethr =  3.40E-09,  avg # of iterations =  1.1

     total cpu time spent up to now is     2540.0 secs

     total energy              =   -2566.50927703 Ry
     estimated scf accuracy    <       0.00000398 Ry

     total magnetization       =    -0.01 Bohr mag/cell
     absolute magnetization    =     0.01 Bohr mag/cell

     iteration #  9     ecut=    90.00 Ry     beta= 0.20
     Davidson diagonalization with overlap
     ethr =  2.84E-09,  avg # of iterations =  1.0

     total cpu time spent up to now is     2583.8 secs

     total energy              =   -2566.50927677 Ry
     estimated scf accuracy    <       0.00002642 Ry

     total magnetization       =    -0.01 Bohr mag/cell
     absolute magnetization    =     0.01 Bohr mag/cell

     iteration # 10     ecut=    90.00 Ry     beta= 0.20
     Davidson diagonalization with overlap
     ethr =  2.84E-09,  avg # of iterations =  1.0

     total cpu time spent up to now is     2627.5 secs

     total energy              =   -2566.50927729 Ry
     estimated scf accuracy    <       0.00000164 Ry

     total magnetization       =    -0.01 Bohr mag/cell
     absolute magnetization    =     0.01 Bohr mag/cell

     iteration # 11     ecut=    90.00 Ry     beta= 0.20
     Davidson diagonalization with overlap
     ethr =  1.17E-09,  avg # of iterations =  1.0

     total cpu time spent up to now is     2671.3 secs

     total energy              =   -2566.50927736 Ry
     estimated scf accuracy    <       0.00000375 Ry

     total magnetization       =    -0.02 Bohr mag/cell
     absolute magnetization    =     0.02 Bohr mag/cell

     iteration # 12     ecut=    90.00 Ry     beta= 0.20
     Davidson diagonalization with overlap
     ethr =  1.17E-09,  avg # of iterations =  1.0

     total cpu time spent up to now is     2715.1 secs

     total energy              =   -2566.50927751 Ry
     estimated scf accuracy    <       0.00000062 Ry

     total magnetization       =    -0.02 Bohr mag/cell
     absolute magnetization    =     0.02 Bohr mag/cell

     iteration # 13     ecut=    90.00 Ry     beta= 0.20
     Davidson diagonalization with overlap
     ethr =  4.42E-10,  avg # of iterations =  1.0

     total cpu time spent up to now is     2758.8 secs

     total energy              =   -2566.50927745 Ry
     estimated scf accuracy    <       0.00000199 Ry

     total magnetization       =    -0.02 Bohr mag/cell
     absolute magnetization    =     0.02 Bohr mag/cell

     iteration # 14     ecut=    90.00 Ry     beta= 0.20
     Davidson diagonalization with overlap
     ethr =  4.42E-10,  avg # of iterations =  1.0

     total cpu time spent up to now is     2802.6 secs

     total energy              =   -2566.50927743 Ry
     estimated scf accuracy    <       0.00000082 Ry

     total magnetization       =    -0.02 Bohr mag/cell
     absolute magnetization    =     0.02 Bohr mag/cell

     iteration # 15     ecut=    90.00 Ry     beta= 0.20
     Davidson diagonalization with overlap
     ethr =  4.42E-10,  avg # of iterations =  1.0

     total cpu time spent up to now is     2846.3 secs

     total energy              =   -2566.50927738 Ry
     estimated scf accuracy    <       0.00000057 Ry

     total magnetization       =    -0.02 Bohr mag/cell
     absolute magnetization    =     0.02 Bohr mag/cell

     iteration # 16     ecut=    90.00 Ry     beta= 0.20
     Davidson diagonalization with overlap
     ethr =  4.04E-10,  avg # of iterations =  1.0

     total cpu time spent up to now is     2890.0 secs

     total energy              =   -2566.50927725 Ry
     estimated scf accuracy    <       0.00000278 Ry

     total magnetization       =    -0.01 Bohr mag/cell
     absolute magnetization    =     0.01 Bohr mag/cell

     iteration # 17     ecut=    90.00 Ry     beta= 0.20
     Davidson diagonalization with overlap
     ethr =  4.04E-10,  avg # of iterations =  1.0

     total cpu time spent up to now is     2933.8 secs

     total energy              =   -2566.50927729 Ry
     estimated scf accuracy    <       0.00000038 Ry

     total magnetization       =    -0.01 Bohr mag/cell
     absolute magnetization    =     0.01 Bohr mag/cell

     iteration # 18     ecut=    90.00 Ry     beta= 0.20
     Davidson diagonalization with overlap
     ethr =  2.69E-10,  avg # of iterations =  1.0

     total cpu time spent up to now is     2977.5 secs

     total energy              =   -2566.50927721 Ry
     estimated scf accuracy    <       0.00000195 Ry

     total magnetization       =    -0.01 Bohr mag/cell
     absolute magnetization    =     0.01 Bohr mag/cell

     iteration # 19     ecut=    90.00 Ry     beta= 0.20
     Davidson diagonalization with overlap
     ethr =  2.69E-10,  avg # of iterations =  1.0

     total cpu time spent up to now is     3021.3 secs

     total energy              =   -2566.50927726 Ry
     estimated scf accuracy    <       0.00000027 Ry

     total magnetization       =    -0.01 Bohr mag/cell
     absolute magnetization    =     0.01 Bohr mag/cell

     iteration # 20     ecut=    90.00 Ry     beta= 0.20
     Davidson diagonalization with overlap
     ethr =  1.91E-10,  avg # of iterations =  1.0

     total cpu time spent up to now is     3065.0 secs

     total energy              =   -2566.50927723 Ry
     estimated scf accuracy    <       0.00000128 Ry

     total magnetization       =    -0.01 Bohr mag/cell
     absolute magnetization    =     0.01 Bohr mag/cell

     iteration # 21     ecut=    90.00 Ry     beta= 0.20
     Davidson diagonalization with overlap
     ethr =  1.91E-10,  avg # of iterations =  1.0

     total cpu time spent up to now is     3108.8 secs

     total energy              =   -2566.50927724 Ry
     estimated scf accuracy    <       0.00000026 Ry

     total magnetization       =    -0.00 Bohr mag/cell
     absolute magnetization    =     0.00 Bohr mag/cell

     iteration # 22     ecut=    90.00 Ry     beta= 0.20
     Davidson diagonalization with overlap
     ethr =  1.83E-10,  avg # of iterations =  1.0

     total cpu time spent up to now is     3152.5 secs

     total energy              =   -2566.50927723 Ry
     estimated scf accuracy    <       0.00000011 Ry

     total magnetization       =    -0.00 Bohr mag/cell
     absolute magnetization    =     0.01 Bohr mag/cell

     iteration # 23     ecut=    90.00 Ry     beta= 0.20
     Davidson diagonalization with overlap
     ethr =  8.09E-11,  avg # of iterations =  1.0

     total cpu time spent up to now is     3196.5 secs

     total energy              =   -2566.50927722 Ry
     estimated scf accuracy    <       0.00000163 Ry

     total magnetization       =    -0.00 Bohr mag/cell
     absolute magnetization    =     0.00 Bohr mag/cell

     iteration # 24     ecut=    90.00 Ry     beta= 0.20
     Davidson diagonalization with overlap
     ethr =  8.09E-11,  avg # of iterations =  1.0

     total cpu time spent up to now is     3240.4 secs

     total energy              =   -2566.50927725 Ry
     estimated scf accuracy    <       0.00000022 Ry

     total magnetization       =    -0.00 Bohr mag/cell
     absolute magnetization    =     0.01 Bohr mag/cell

     iteration # 25     ecut=    90.00 Ry     beta= 0.20
     Davidson diagonalization with overlap
     ethr =  8.09E-11,  avg # of iterations =  1.0

     total cpu time spent up to now is     3284.1 secs

     total energy              =   -2566.50927726 Ry
     estimated scf accuracy    <       0.00000007 Ry

     total magnetization       =    -0.00 Bohr mag/cell
     absolute magnetization    =     0.01 Bohr mag/cell

     iteration # 26     ecut=    90.00 Ry     beta= 0.20
     Davidson diagonalization with overlap
     ethr =  5.21E-11,  avg # of iterations =  1.0

     total cpu time spent up to now is     3327.8 secs

     total energy              =   -2566.50927725 Ry
     estimated scf accuracy    <       0.00000019 Ry

     total magnetization       =    -0.00 Bohr mag/cell
     absolute magnetization    =     0.01 Bohr mag/cell

     iteration # 27     ecut=    90.00 Ry     beta= 0.20
     Davidson diagonalization with overlap
     ethr =  5.21E-11,  avg # of iterations =  1.0

     total cpu time spent up to now is     3371.6 secs

     total energy              =   -2566.50927725 Ry
     estimated scf accuracy    <       0.00000007 Ry

     total magnetization       =    -0.00 Bohr mag/cell
     absolute magnetization    =     0.01 Bohr mag/cell

     iteration # 28     ecut=    90.00 Ry     beta= 0.20
     Davidson diagonalization with overlap
     ethr =  5.19E-11,  avg # of iterations =  1.0

     total cpu time spent up to now is     3415.4 secs

     total energy              =   -2566.50927726 Ry
     estimated scf accuracy    <       0.00000008 Ry

     total magnetization       =    -0.00 Bohr mag/cell
     absolute magnetization    =     0.01 Bohr mag/cell

     iteration # 29     ecut=    90.00 Ry     beta= 0.20
     Davidson diagonalization with overlap
     ethr =  5.19E-11,  avg # of iterations =  1.0

     total cpu time spent up to now is     3459.1 secs

     total energy              =   -2566.50927726 Ry
     estimated scf accuracy    <       0.00000013 Ry

     total magnetization       =    -0.00 Bohr mag/cell
     absolute magnetization    =     0.01 Bohr mag/cell

     iteration # 30     ecut=    90.00 Ry     beta= 0.20
     Davidson diagonalization with overlap
     ethr =  5.19E-11,  avg # of iterations =  1.0

     total cpu time spent up to now is     3502.9 secs

     total energy              =   -2566.50927726 Ry
     estimated scf accuracy    <       0.00000007 Ry

     total magnetization       =    -0.00 Bohr mag/cell
     absolute magnetization    =     0.01 Bohr mag/cell

     iteration # 31     ecut=    90.00 Ry     beta= 0.20
     Davidson diagonalization with overlap
     ethr =  5.19E-11,  avg # of iterations =  1.0

     total cpu time spent up to now is     3546.6 secs

     total energy              =   -2566.50927726 Ry
     estimated scf accuracy    <       0.00000009 Ry

     total magnetization       =    -0.00 Bohr mag/cell
     absolute magnetization    =     0.01 Bohr mag/cell

     iteration # 32     ecut=    90.00 Ry     beta= 0.20
     Davidson diagonalization with overlap
     ethr =  5.19E-11,  avg # of iterations =  1.0

     total cpu time spent up to now is     3590.4 secs

     total energy              =   -2566.50927726 Ry
     estimated scf accuracy    <       0.00000008 Ry

     total magnetization       =     0.00 Bohr mag/cell
     absolute magnetization    =     0.01 Bohr mag/cell

     iteration # 33     ecut=    90.00 Ry     beta= 0.20
     Davidson diagonalization with overlap
     ethr =  5.19E-11,  avg # of iterations =  1.0

     total cpu time spent up to now is     3634.1 secs

     total energy              =   -2566.50927725 Ry
     estimated scf accuracy    <       0.00000008 Ry

     total magnetization       =    -0.00 Bohr mag/cell
     absolute magnetization    =     0.01 Bohr mag/cell

     iteration # 34     ecut=    90.00 Ry     beta= 0.20
     Davidson diagonalization with overlap
     ethr =  5.19E-11,  avg # of iterations =  1.0

     total cpu time spent up to now is     3677.9 secs

     total energy              =   -2566.50927726 Ry
     estimated scf accuracy    <       0.00000009 Ry

     total magnetization       =    -0.00 Bohr mag/cell
     absolute magnetization    =     0.01 Bohr mag/cell

     iteration # 35     ecut=    90.00 Ry     beta= 0.20
     Davidson diagonalization with overlap
     ethr =  5.19E-11,  avg # of iterations =  1.0

     total cpu time spent up to now is     3722.3 secs

     total energy              =   -2566.50927726 Ry
     estimated scf accuracy    <       0.00000022 Ry

     total magnetization       =    -0.00 Bohr mag/cell
     absolute magnetization    =     0.01 Bohr mag/cell

     iteration # 36     ecut=    90.00 Ry     beta= 0.20
     Davidson diagonalization with overlap
     ethr =  5.19E-11,  avg # of iterations =  1.0

     total cpu time spent up to now is     3766.1 secs

     total energy              =   -2566.50927723 Ry
     estimated scf accuracy    <       0.00000042 Ry

     total magnetization       =    -0.00 Bohr mag/cell
     absolute magnetization    =     0.01 Bohr mag/cell

     iteration # 37     ecut=    90.00 Ry     beta= 0.20
     Davidson diagonalization with overlap
     ethr =  5.19E-11,  avg # of iterations =  1.0

     total cpu time spent up to now is     3809.8 secs

     total energy              =   -2566.50927724 Ry
     estimated scf accuracy    <       0.00000011 Ry

     total magnetization       =    -0.00 Bohr mag/cell
     absolute magnetization    =     0.00 Bohr mag/cell

     iteration # 38     ecut=    90.00 Ry     beta= 0.20
     Davidson diagonalization with overlap
     ethr =  5.19E-11,  avg # of iterations =  1.0

     total cpu time spent up to now is     3853.5 secs

     total energy              =   -2566.50927724 Ry
     estimated scf accuracy    <       0.00000013 Ry

     total magnetization       =    -0.00 Bohr mag/cell
     absolute magnetization    =     0.00 Bohr mag/cell

     iteration # 39     ecut=    90.00 Ry     beta= 0.20
     Davidson diagonalization with overlap
     ethr =  5.19E-11,  avg # of iterations =  1.0

     total cpu time spent up to now is     3897.3 secs

     total energy              =   -2566.50927725 Ry
     estimated scf accuracy    <       0.00000007 Ry

     total magnetization       =    -0.00 Bohr mag/cell
     absolute magnetization    =     0.00 Bohr mag/cell

     iteration # 40     ecut=    90.00 Ry     beta= 0.20
     Davidson diagonalization with overlap
     ethr =  4.78E-11,  avg # of iterations =  1.0

     total cpu time spent up to now is     3941.0 secs

     total energy              =   -2566.50927725 Ry
     estimated scf accuracy    <       0.00000017 Ry

     total magnetization       =    -0.00 Bohr mag/cell
     absolute magnetization    =     0.01 Bohr mag/cell

     iteration # 41     ecut=    90.00 Ry     beta= 0.20
     Davidson diagonalization with overlap
     ethr =  4.78E-11,  avg # of iterations =  1.0

     total cpu time spent up to now is     3984.8 secs

     total energy              =   -2566.50927720 Ry
     estimated scf accuracy    <       0.00000008 Ry

     total magnetization       =    -0.00 Bohr mag/cell
     absolute magnetization    =     0.01 Bohr mag/cell

     iteration # 42     ecut=    90.00 Ry     beta= 0.20
     Davidson diagonalization with overlap
     ethr =  4.78E-11,  avg # of iterations =  1.2

     total cpu time spent up to now is     4029.7 secs

     total energy              =   -2566.50927721 Ry
     estimated scf accuracy    <       0.00000011 Ry

     total magnetization       =    -0.00 Bohr mag/cell
     absolute magnetization    =     0.00 Bohr mag/cell

     iteration # 43     ecut=    90.00 Ry     beta= 0.20
     Davidson diagonalization with overlap
     ethr =  4.78E-11,  avg # of iterations =  1.0

     total cpu time spent up to now is     4073.5 secs

     total energy              =   -2566.50927721 Ry
     estimated scf accuracy    <       0.00000018 Ry

     total magnetization       =    -0.00 Bohr mag/cell
     absolute magnetization    =     0.00 Bohr mag/cell

     iteration # 44     ecut=    90.00 Ry     beta= 0.20
     Davidson diagonalization with overlap
     ethr =  4.78E-11,  avg # of iterations =  1.0

     total cpu time spent up to now is     4117.2 secs

     total energy              =   -2566.50927722 Ry
     estimated scf accuracy    <       0.00000008 Ry

     total magnetization       =    -0.00 Bohr mag/cell
     absolute magnetization    =     0.00 Bohr mag/cell

     iteration # 45     ecut=    90.00 Ry     beta= 0.20
     Davidson diagonalization with overlap
     ethr =  4.78E-11,  avg # of iterations =  1.0

     total cpu time spent up to now is     4160.9 secs

     total energy              =   -2566.50927720 Ry
     estimated scf accuracy    <       0.00000017 Ry

     total magnetization       =    -0.00 Bohr mag/cell
     absolute magnetization    =     0.00 Bohr mag/cell

     iteration # 46     ecut=    90.00 Ry     beta= 0.20
     Davidson diagonalization with overlap
     ethr =  4.78E-11,  avg # of iterations =  1.0

     total cpu time spent up to now is     4204.6 secs

     total energy              =   -2566.50927721 Ry
     estimated scf accuracy    <       0.00000015 Ry

     total magnetization       =     0.00 Bohr mag/cell
     absolute magnetization    =     0.00 Bohr mag/cell

     iteration # 47     ecut=    90.00 Ry     beta= 0.20
     Davidson diagonalization with overlap
     ethr =  4.78E-11,  avg # of iterations =  1.0

     total cpu time spent up to now is     4248.4 secs

     total energy              =   -2566.50927721 Ry
     estimated scf accuracy    <       0.00000003 Ry

     total magnetization       =    -0.00 Bohr mag/cell
     absolute magnetization    =     0.00 Bohr mag/cell

     iteration # 48     ecut=    90.00 Ry     beta= 0.20
     Davidson diagonalization with overlap
     ethr =  2.17E-11,  avg # of iterations =  1.0

     total cpu time spent up to now is     4292.1 secs

     total energy              =   -2566.50927721 Ry
     estimated scf accuracy    <       0.00000009 Ry

     total magnetization       =    -0.00 Bohr mag/cell
     absolute magnetization    =     0.00 Bohr mag/cell

     iteration # 49     ecut=    90.00 Ry     beta= 0.20
     Davidson diagonalization with overlap
     ethr =  2.17E-11,  avg # of iterations =  1.0

     total cpu time spent up to now is     4335.8 secs

     total energy              =   -2566.50927721 Ry
     estimated scf accuracy    <       0.00000003 Ry

     total magnetization       =    -0.00 Bohr mag/cell
     absolute magnetization    =     0.00 Bohr mag/cell

     iteration # 50     ecut=    90.00 Ry     beta= 0.20
     Davidson diagonalization with overlap
     ethr =  1.85E-11,  avg # of iterations =  1.0

     Magnetic moment per site:
     atom:    1    charge:   16.2810    magn:    0.0000    constr:    0.0000
     atom:    2    charge:   15.1603    magn:    0.0000    constr:    0.0000
     atom:    3    charge:   16.2810    magn:   -0.0000    constr:    0.0000
     atom:    4    charge:   15.1603    magn:    0.0000    constr:    0.0000
     atom:    5    charge:   16.2810    magn:    0.0000    constr:    0.0000
     atom:    6    charge:   15.1602    magn:    0.0000    constr:    0.0000
     atom:    7    charge:   16.2810    magn:    0.0000    constr:    0.0000
     atom:    8    charge:   15.1602    magn:    0.0000    constr:    0.0000

     total cpu time spent up to now is     4379.5 secs

     End of self-consistent calculation

     Number of k-points >= 100: set verbosity='high' to print the bands.

     the Fermi energy is    15.4924 ev

!    total energy              =   -2566.50927721 Ry
     estimated scf accuracy    <          4.5E-10 Ry
     smearing contrib. (-TS)   =      -0.01716339 Ry
     internal energy E=F+TS    =   -2566.49211383 Ry

     The total energy is F=E-TS. E is the sum of the following terms:
     one-electron contribution =   -1553.91023759 Ry
     hartree contribution      =     854.96448695 Ry
     xc contribution           =    -272.59951259 Ry
     ewald contribution        =   -1594.94685059 Ry

     total magnetization       =     0.00 Bohr mag/cell
     absolute magnetization    =     0.00 Bohr mag/cell

     convergence has been achieved in  50 iterations

     Forces acting on atoms (cartesian axes, Ry/au):

     atom    1 type  1   force =    -0.00000430    0.00007970   -0.00002388
     atom    2 type  2   force =     0.00005414   -0.00153831    0.00004717
     atom    3 type  1   force =    -0.00000704    0.00007938   -0.00002542
     atom    4 type  2   force =     0.00005408   -0.00153862    0.00004360
     atom    5 type  1   force =     0.00008088    0.00088642    0.00000771
     atom    6 type  2   force =    -0.00012821    0.00057303   -0.00002483
     atom    7 type  1   force =     0.00007778    0.00088537    0.00000135
     atom    8 type  2   force =    -0.00012733    0.00057304   -0.00002571

     Total force =     0.002652     Total SCF correction =     0.000121


     Computing stress (Cartesian axis) and pressure

          total   stress  (Ry/bohr**3)                   (kbar)     P=       -3.09
   0.00001531  -0.00000000   0.00000000            2.25       -0.00        0.00
  -0.00000000  -0.00009371   0.00000001           -0.00      -13.79        0.00
   0.00000000   0.00000001   0.00001528            0.00        0.00        2.25

     Energy error            =      2.0E-06
     Gradient error          =      1.5E-03

     number of scf cycles    =   4
     number of bfgs steps    =   2

     energy   old            =   -2566.5092752366 Ry
     energy   new            =   -2566.5092772150 Ry

     CASE: energy  _new < energy  _old


     WARNING: bfgs curvature condition failed, Theta= 0.833
     new trust radius        =       0.0177604438 bohr
     new conv_thr            =            1.0E-10 Ry


ATOMIC_POSITIONS (angstrom)
Ni            0.0008994655        2.3210544449       -0.0005918171
Co            2.3040357523        0.0001532932        2.3070351471
Ni            0.0009015743        0.0058846461        2.3030585711
Co            2.3040387271        2.3153150742        0.0033851119
Ni            2.3073762040       -0.0013304597        0.0089465284
Co            0.0020647166        2.3224477199        2.3021127287
Ni            2.3073576435        2.3138466169        2.3125943119
Co            0.0020496393        0.0072773727       -0.0015383457



     Writing output data file ./pwscf.save/
     NEW-OLD atomic charge density approx. for the potential

     Check: negative core charge=   -0.000012
     Generating pointlists ...

     total cpu time spent up to now is     4406.8 secs

     Self-consistent Calculation

     iteration #  1     ecut=    90.00 Ry     beta= 0.20
     Davidson diagonalization with overlap
     ethr =  1.00E-06,  avg # of iterations =  5.0

     total cpu time spent up to now is     4523.1 secs

     total energy              =   -2566.50931411 Ry
     estimated scf accuracy    <       0.00016617 Ry

     total magnetization       =     0.00 Bohr mag/cell
     absolute magnetization    =     0.00 Bohr mag/cell

     iteration #  2     ecut=    90.00 Ry     beta= 0.20
     Davidson diagonalization with overlap
     ethr =  1.19E-07,  avg # of iterations =  1.8

     total cpu time spent up to now is     4570.9 secs

     total energy              =   -2566.50929987 Ry
     estimated scf accuracy    <       0.00015363 Ry

     total magnetization       =     0.00 Bohr mag/cell
     absolute magnetization    =     0.00 Bohr mag/cell

     iteration #  3     ecut=    90.00 Ry     beta= 0.20
     Davidson diagonalization with overlap
     ethr =  1.10E-07,  avg # of iterations =  1.1

     total cpu time spent up to now is     4614.4 secs

     total energy              =   -2566.50925876 Ry
     estimated scf accuracy    <       0.00300436 Ry

     total magnetization       =     0.00 Bohr mag/cell
     absolute magnetization    =     0.00 Bohr mag/cell

     iteration #  4     ecut=    90.00 Ry     beta= 0.20
     Davidson diagonalization with overlap
     ethr =  1.10E-07,  avg # of iterations =  1.0

     total cpu time spent up to now is     4657.5 secs

     total energy              =   -2566.50930696 Ry
     estimated scf accuracy    <       0.00004602 Ry

     total magnetization       =     0.00 Bohr mag/cell
     absolute magnetization    =     0.00 Bohr mag/cell

     iteration #  5     ecut=    90.00 Ry     beta= 0.20
     Davidson diagonalization with overlap
     ethr =  3.29E-08,  avg # of iterations =  1.0

     total cpu time spent up to now is     4700.4 secs

     total energy              =   -2566.50930778 Ry
     estimated scf accuracy    <       0.00003593 Ry

     total magnetization       =     0.00 Bohr mag/cell
     absolute magnetization    =     0.00 Bohr mag/cell

     iteration #  6     ecut=    90.00 Ry     beta= 0.20
     Davidson diagonalization with overlap
     ethr =  2.57E-08,  avg # of iterations =  1.0

     total cpu time spent up to now is     4743.4 secs

     total energy              =   -2566.50930660 Ry
     estimated scf accuracy    <       0.00014610 Ry

     total magnetization       =     0.00 Bohr mag/cell
     absolute magnetization    =     0.00 Bohr mag/cell

     iteration #  7     ecut=    90.00 Ry     beta= 0.20
     Davidson diagonalization with overlap
     ethr =  2.57E-08,  avg # of iterations =  1.0

     total cpu time spent up to now is     4786.4 secs

     total energy              =   -2566.50930925 Ry
     estimated scf accuracy    <       0.00000589 Ry

     total magnetization       =     0.00 Bohr mag/cell
     absolute magnetization    =     0.00 Bohr mag/cell

     iteration #  8     ecut=    90.00 Ry     beta= 0.20
     Davidson diagonalization with overlap
     ethr =  4.21E-09,  avg # of iterations =  1.0

     total cpu time spent up to now is     4829.3 secs

     total energy              =   -2566.50930953 Ry
     estimated scf accuracy    <       0.00000132 Ry

     total magnetization       =     0.00 Bohr mag/cell
     absolute magnetization    =     0.00 Bohr mag/cell

     iteration #  9     ecut=    90.00 Ry     beta= 0.20
     Davidson diagonalization with overlap
     ethr =  9.40E-10,  avg # of iterations =  1.1

     total cpu time spent up to now is     4873.1 secs

     total energy              =   -2566.50930919 Ry
     estimated scf accuracy    <       0.00002618 Ry

     total magnetization       =     0.00 Bohr mag/cell
     absolute magnetization    =     0.00 Bohr mag/cell

     iteration # 10     ecut=    90.00 Ry     beta= 0.20
     Davidson diagonalization with overlap
     ethr =  9.40E-10,  avg # of iterations =  1.0

     total cpu time spent up to now is     4916.2 secs

     total energy              =   -2566.50930960 Ry
     estimated scf accuracy    <       0.00000079 Ry

     total magnetization       =     0.00 Bohr mag/cell
     absolute magnetization    =     0.00 Bohr mag/cell

     iteration # 11     ecut=    90.00 Ry     beta= 0.20
     Davidson diagonalization with overlap
     ethr =  5.67E-10,  avg # of iterations =  1.0

     total cpu time spent up to now is     4959.5 secs

     total energy              =   -2566.50930963 Ry
     estimated scf accuracy    <       0.00000194 Ry

     total magnetization       =     0.00 Bohr mag/cell
     absolute magnetization    =     0.00 Bohr mag/cell

     iteration # 12     ecut=    90.00 Ry     beta= 0.20
     Davidson diagonalization with overlap
     ethr =  5.67E-10,  avg # of iterations =  1.0

     total cpu time spent up to now is     5002.6 secs

     total energy              =   -2566.50930971 Ry
     estimated scf accuracy    <       0.00000002 Ry

     total magnetization       =     0.00 Bohr mag/cell
     absolute magnetization    =     0.00 Bohr mag/cell

     iteration # 13     ecut=    90.00 Ry     beta= 0.20
     Davidson diagonalization with overlap
     ethr =  1.66E-11,  avg # of iterations =  1.9

     total cpu time spent up to now is     5051.7 secs

     total energy              =   -2566.50930971 Ry
     estimated scf accuracy    <       0.00000021 Ry

     total magnetization       =     0.00 Bohr mag/cell
     absolute magnetization    =     0.00 Bohr mag/cell

     iteration # 14     ecut=    90.00 Ry     beta= 0.20
     Davidson diagonalization with overlap
     ethr =  1.66E-11,  avg # of iterations =  1.0

     total cpu time spent up to now is     5094.8 secs

     total energy              =   -2566.50930972 Ry
     estimated scf accuracy    <       0.00000004 Ry

     total magnetization       =     0.00 Bohr mag/cell
     absolute magnetization    =     0.00 Bohr mag/cell

     iteration # 15     ecut=    90.00 Ry     beta= 0.20
     Davidson diagonalization with overlap
     ethr =  1.66E-11,  avg # of iterations =  1.0

     total cpu time spent up to now is     5137.9 secs

     total energy              =   -2566.50930972 Ry
     estimated scf accuracy    <       0.00000002 Ry

     total magnetization       =     0.00 Bohr mag/cell
     absolute magnetization    =     0.00 Bohr mag/cell

     iteration # 16     ecut=    90.00 Ry     beta= 0.20
     Davidson diagonalization with overlap
     ethr =  1.66E-11,  avg # of iterations =  1.0

     total cpu time spent up to now is     5180.9 secs

     total energy              =   -2566.50930972 Ry
     estimated scf accuracy    <       0.00000011 Ry

     total magnetization       =     0.00 Bohr mag/cell
     absolute magnetization    =     0.00 Bohr mag/cell

     iteration # 17     ecut=    90.00 Ry     beta= 0.20
     Davidson diagonalization with overlap
     ethr =  1.66E-11,  avg # of iterations =  1.0

     total cpu time spent up to now is     5224.0 secs

     total energy              =   -2566.50930972 Ry
     estimated scf accuracy    <       0.00000007 Ry

     total magnetization       =     0.00 Bohr mag/cell
     absolute magnetization    =     0.00 Bohr mag/cell

     iteration # 18     ecut=    90.00 Ry     beta= 0.20
     Davidson diagonalization with overlap
     ethr =  1.66E-11,  avg # of iterations =  1.0

     total cpu time spent up to now is     5267.1 secs

     total energy              =   -2566.50930972 Ry
     estimated scf accuracy    <       0.00000002 Ry

     total magnetization       =     0.00 Bohr mag/cell
     absolute magnetization    =     0.00 Bohr mag/cell

     iteration # 19     ecut=    90.00 Ry     beta= 0.20
     Davidson diagonalization with overlap
     ethr =  1.38E-11,  avg # of iterations =  1.0

     total cpu time spent up to now is     5310.2 secs

     total energy              =   -2566.50930972 Ry
     estimated scf accuracy    <       0.00000003 Ry

     total magnetization       =     0.00 Bohr mag/cell
     absolute magnetization    =     0.00 Bohr mag/cell

     iteration # 20     ecut=    90.00 Ry     beta= 0.20
     Davidson diagonalization with overlap
     ethr =  1.38E-11,  avg # of iterations =  1.0

     total cpu time spent up to now is     5353.3 secs

     total energy              =   -2566.50930973 Ry
     estimated scf accuracy    <       0.00000002 Ry

     total magnetization       =     0.00 Bohr mag/cell
     absolute magnetization    =     0.00 Bohr mag/cell

     iteration # 21     ecut=    90.00 Ry     beta= 0.20
     Davidson diagonalization with overlap
     ethr =  1.38E-11,  avg # of iterations =  1.0

     total cpu time spent up to now is     5396.4 secs

     total energy              =   -2566.50930973 Ry
     estimated scf accuracy    <       0.00000002 Ry

     total magnetization       =     0.00 Bohr mag/cell
     absolute magnetization    =     0.00 Bohr mag/cell

     iteration # 22     ecut=    90.00 Ry     beta= 0.20
     Davidson diagonalization with overlap
     ethr =  1.38E-11,  avg # of iterations =  1.0

     total cpu time spent up to now is     5439.4 secs

     total energy              =   -2566.50930973 Ry
     estimated scf accuracy    <       0.00000002 Ry

     total magnetization       =     0.00 Bohr mag/cell
     absolute magnetization    =     0.00 Bohr mag/cell

     iteration # 23     ecut=    90.00 Ry     beta= 0.20
     Davidson diagonalization with overlap
     ethr =  1.38E-11,  avg # of iterations =  1.0

     total cpu time spent up to now is     5482.5 secs

     total energy              =   -2566.50930972 Ry
     estimated scf accuracy    <       0.00000007 Ry

     total magnetization       =     0.00 Bohr mag/cell
     absolute magnetization    =     0.00 Bohr mag/cell

     iteration # 24     ecut=    90.00 Ry     beta= 0.20
     Davidson diagonalization with overlap
     ethr =  1.38E-11,  avg # of iterations =  1.0

     total cpu time spent up to now is     5525.6 secs

     total energy              =   -2566.50930973 Ry
     estimated scf accuracy    <       0.00000003 Ry

     total magnetization       =     0.00 Bohr mag/cell
     absolute magnetization    =     0.00 Bohr mag/cell

     iteration # 25     ecut=    90.00 Ry     beta= 0.20
     Davidson diagonalization with overlap
     ethr =  1.38E-11,  avg # of iterations =  1.0

     total cpu time spent up to now is     5568.7 secs

     total energy              =   -2566.50930973 Ry
     estimated scf accuracy    <       0.00000002 Ry

     total magnetization       =     0.00 Bohr mag/cell
     absolute magnetization    =     0.00 Bohr mag/cell

     iteration # 26     ecut=    90.00 Ry     beta= 0.20
     Davidson diagonalization with overlap
     ethr =  1.38E-11,  avg # of iterations =  1.0

     total cpu time spent up to now is     5611.8 secs

     total energy              =   -2566.50930973 Ry
     estimated scf accuracy    <       0.00000004 Ry

     total magnetization       =     0.00 Bohr mag/cell
     absolute magnetization    =     0.00 Bohr mag/cell

     iteration # 27     ecut=    90.00 Ry     beta= 0.20
     Davidson diagonalization with overlap
     ethr =  1.38E-11,  avg # of iterations =  1.0

     total cpu time spent up to now is     5654.9 secs

     total energy              =   -2566.50930972 Ry
     estimated scf accuracy    <       0.00000007 Ry

     total magnetization       =     0.00 Bohr mag/cell
     absolute magnetization    =     0.00 Bohr mag/cell

     iteration # 28     ecut=    90.00 Ry     beta= 0.20
     Davidson diagonalization with overlap
     ethr =  1.38E-11,  avg # of iterations =  1.0

     total cpu time spent up to now is     5697.9 secs

     total energy              =   -2566.50930972 Ry
     estimated scf accuracy    <       0.00000001 Ry

     total magnetization       =     0.00 Bohr mag/cell
     absolute magnetization    =     0.00 Bohr mag/cell

     iteration # 29     ecut=    90.00 Ry     beta= 0.20
     Davidson diagonalization with overlap
     ethr =  9.67E-12,  avg # of iterations =  1.0

     total cpu time spent up to now is     5741.0 secs

     total energy              =   -2566.50930972 Ry
     estimated scf accuracy    <       0.00000001 Ry

     total magnetization       =     0.00 Bohr mag/cell
     absolute magnetization    =     0.00 Bohr mag/cell

     iteration # 30     ecut=    90.00 Ry     beta= 0.20
     Davidson diagonalization with overlap
     ethr =  9.67E-12,  avg # of iterations =  1.0

     total cpu time spent up to now is     5784.1 secs

     total energy              =   -2566.50930972 Ry
     estimated scf accuracy    <       0.00000015 Ry

     total magnetization       =     0.00 Bohr mag/cell
     absolute magnetization    =     0.00 Bohr mag/cell

     iteration # 31     ecut=    90.00 Ry     beta= 0.20
     Davidson diagonalization with overlap
     ethr =  9.67E-12,  avg # of iterations =  1.0

     total cpu time spent up to now is     5827.2 secs

     total energy              =   -2566.50930972 Ry
     estimated scf accuracy    <       0.00000002 Ry

     total magnetization       =     0.00 Bohr mag/cell
     absolute magnetization    =     0.00 Bohr mag/cell

     iteration # 32     ecut=    90.00 Ry     beta= 0.20
     Davidson diagonalization with overlap
     ethr =  9.67E-12,  avg # of iterations =  1.0

     total cpu time spent up to now is     5870.2 secs

     total energy              =   -2566.50930971 Ry
     estimated scf accuracy    <       0.00000002 Ry

     total magnetization       =     0.00 Bohr mag/cell
     absolute magnetization    =     0.00 Bohr mag/cell

     iteration # 33     ecut=    90.00 Ry     beta= 0.20
     Davidson diagonalization with overlap
     ethr =  9.67E-12,  avg # of iterations =  1.0

     total cpu time spent up to now is     5913.4 secs

     total energy              =   -2566.50930972 Ry
     estimated scf accuracy    <       0.00000013 Ry

     total magnetization       =     0.00 Bohr mag/cell
     absolute magnetization    =     0.00 Bohr mag/cell

     iteration # 34     ecut=    90.00 Ry     beta= 0.20
     Davidson diagonalization with overlap
     ethr =  9.67E-12,  avg # of iterations =  1.0

     total cpu time spent up to now is     5956.5 secs

     total energy              =   -2566.50930972 Ry
     estimated scf accuracy    <       0.00000003 Ry

     total magnetization       =     0.00 Bohr mag/cell
     absolute magnetization    =     0.00 Bohr mag/cell

     iteration # 35     ecut=    90.00 Ry     beta= 0.20
     Davidson diagonalization with overlap
     ethr =  9.67E-12,  avg # of iterations =  1.0

     total cpu time spent up to now is     5999.5 secs

     total energy              =   -2566.50930972 Ry
     estimated scf accuracy    <          4.0E-09 Ry

     total magnetization       =    -0.00 Bohr mag/cell
     absolute magnetization    =     0.00 Bohr mag/cell

     iteration # 36     ecut=    90.00 Ry     beta= 0.20
     Davidson diagonalization with overlap
     ethr =  2.85E-12,  avg # of iterations =  1.0

     total cpu time spent up to now is     6042.6 secs

     total energy              =   -2566.50930972 Ry
     estimated scf accuracy    <          7.8E-09 Ry

     total magnetization       =    -0.00 Bohr mag/cell
     absolute magnetization    =     0.00 Bohr mag/cell

     iteration # 37     ecut=    90.00 Ry     beta= 0.20
     Davidson diagonalization with overlap
     ethr =  2.85E-12,  avg # of iterations =  1.0

     total cpu time spent up to now is     6085.7 secs

     total energy              =   -2566.50930972 Ry
     estimated scf accuracy    <          7.8E-09 Ry

     total magnetization       =    -0.00 Bohr mag/cell
     absolute magnetization    =     0.00 Bohr mag/cell

     iteration # 38     ecut=    90.00 Ry     beta= 0.20
     Davidson diagonalization with overlap
     ethr =  2.85E-12,  avg # of iterations =  1.0

     total cpu time spent up to now is     6128.7 secs

     total energy              =   -2566.50930972 Ry
     estimated scf accuracy    <          5.4E-10 Ry

     total magnetization       =    -0.00 Bohr mag/cell
     absolute magnetization    =     0.00 Bohr mag/cell

     iteration # 39     ecut=    90.00 Ry     beta= 0.20
     Davidson diagonalization with overlap
     ethr =  3.84E-13,  avg # of iterations =  1.0

     total cpu time spent up to now is     6171.9 secs

     total energy              =   -2566.50930972 Ry
     estimated scf accuracy    <          1.1E-09 Ry

     total magnetization       =    -0.00 Bohr mag/cell
     absolute magnetization    =     0.00 Bohr mag/cell

     iteration # 40     ecut=    90.00 Ry     beta= 0.20
     Davidson diagonalization with overlap
     ethr =  3.84E-13,  avg # of iterations =  1.0

     total cpu time spent up to now is     6214.9 secs

     total energy              =   -2566.50930972 Ry
     estimated scf accuracy    <          9.3E-10 Ry

     total magnetization       =    -0.00 Bohr mag/cell
     absolute magnetization    =     0.00 Bohr mag/cell

     iteration # 41     ecut=    90.00 Ry     beta= 0.20
     Davidson diagonalization with overlap
     ethr =  3.84E-13,  avg # of iterations =  1.0

     total cpu time spent up to now is     6258.0 secs

     total energy              =   -2566.50930972 Ry
     estimated scf accuracy    <          7.0E-10 Ry

     total magnetization       =    -0.00 Bohr mag/cell
     absolute magnetization    =     0.00 Bohr mag/cell

     iteration # 42     ecut=    90.00 Ry     beta= 0.20
     Davidson diagonalization with overlap
     ethr =  3.84E-13,  avg # of iterations =  1.0

     total cpu time spent up to now is     6301.1 secs

     total energy              =   -2566.50930972 Ry
     estimated scf accuracy    <          4.9E-10 Ry

     total magnetization       =    -0.00 Bohr mag/cell
     absolute magnetization    =     0.00 Bohr mag/cell

     iteration # 43     ecut=    90.00 Ry     beta= 0.20
     Davidson diagonalization with overlap
     ethr =  3.52E-13,  avg # of iterations =  1.0

     total cpu time spent up to now is     6344.1 secs

     total energy              =   -2566.50930972 Ry
     estimated scf accuracy    <          4.9E-10 Ry

     total magnetization       =    -0.00 Bohr mag/cell
     absolute magnetization    =     0.00 Bohr mag/cell

     iteration # 44     ecut=    90.00 Ry     beta= 0.20
     Davidson diagonalization with overlap
     ethr =  3.52E-13,  avg # of iterations =  1.0

     total cpu time spent up to now is     6387.2 secs

     total energy              =   -2566.50930972 Ry
     estimated scf accuracy    <          4.5E-10 Ry

     total magnetization       =    -0.00 Bohr mag/cell
     absolute magnetization    =     0.00 Bohr mag/cell

     iteration # 45     ecut=    90.00 Ry     beta= 0.20
     Davidson diagonalization with overlap
     ethr =  3.23E-13,  avg # of iterations =  1.0

     total cpu time spent up to now is     6430.3 secs

     total energy              =   -2566.50930972 Ry
     estimated scf accuracy    <          1.1E-09 Ry

     total magnetization       =    -0.00 Bohr mag/cell
     absolute magnetization    =     0.00 Bohr mag/cell

     iteration # 46     ecut=    90.00 Ry     beta= 0.20
     Davidson diagonalization with overlap
     ethr =  3.23E-13,  avg # of iterations =  1.0

     total cpu time spent up to now is     6473.3 secs

     total energy              =   -2566.50930972 Ry
     estimated scf accuracy    <          7.2E-10 Ry

     total magnetization       =    -0.00 Bohr mag/cell
     absolute magnetization    =     0.00 Bohr mag/cell

     iteration # 47     ecut=    90.00 Ry     beta= 0.20
     Davidson diagonalization with overlap
     ethr =  3.23E-13,  avg # of iterations =  1.0

     total cpu time spent up to now is     6516.4 secs

     total energy              =   -2566.50930972 Ry
     estimated scf accuracy    <          7.8E-10 Ry

     total magnetization       =    -0.00 Bohr mag/cell
     absolute magnetization    =     0.00 Bohr mag/cell

     iteration # 48     ecut=    90.00 Ry     beta= 0.20
     Davidson diagonalization with overlap
     ethr =  3.23E-13,  avg # of iterations =  1.0

     total cpu time spent up to now is     6559.5 secs

     total energy              =   -2566.50930972 Ry
     estimated scf accuracy    <          8.1E-10 Ry

     total magnetization       =    -0.00 Bohr mag/cell
     absolute magnetization    =     0.00 Bohr mag/cell

     iteration # 49     ecut=    90.00 Ry     beta= 0.20
     Davidson diagonalization with overlap
     ethr =  3.23E-13,  avg # of iterations =  1.0

     total cpu time spent up to now is     6602.6 secs

     total energy              =   -2566.50930972 Ry
     estimated scf accuracy    <          1.0E-09 Ry

     total magnetization       =    -0.00 Bohr mag/cell
     absolute magnetization    =     0.00 Bohr mag/cell

     iteration # 50     ecut=    90.00 Ry     beta= 0.20
     Davidson diagonalization with overlap
     ethr =  3.23E-13,  avg # of iterations =  1.0

     total cpu time spent up to now is     6645.6 secs

     total energy              =   -2566.50930972 Ry
     estimated scf accuracy    <          1.5E-09 Ry

     total magnetization       =    -0.00 Bohr mag/cell
     absolute magnetization    =     0.00 Bohr mag/cell

     iteration # 51     ecut=    90.00 Ry     beta= 0.20
     Davidson diagonalization with overlap
     ethr =  3.23E-13,  avg # of iterations =  1.0

     total cpu time spent up to now is     6688.7 secs

     total energy              =   -2566.50930972 Ry
     estimated scf accuracy    <          1.4E-09 Ry

     total magnetization       =    -0.00 Bohr mag/cell
     absolute magnetization    =     0.00 Bohr mag/cell

     iteration # 52     ecut=    90.00 Ry     beta= 0.20
     Davidson diagonalization with overlap
     ethr =  3.23E-13,  avg # of iterations =  1.0

     total cpu time spent up to now is     6731.8 secs

     total energy              =   -2566.50930972 Ry
     estimated scf accuracy    <          6.1E-10 Ry

     total magnetization       =    -0.00 Bohr mag/cell
     absolute magnetization    =     0.00 Bohr mag/cell

     iteration # 53     ecut=    90.00 Ry     beta= 0.20
     Davidson diagonalization with overlap
     ethr =  3.23E-13,  avg # of iterations =  1.0

     total cpu time spent up to now is     6774.9 secs

     total energy              =   -2566.50930972 Ry
     estimated scf accuracy    <          5.3E-10 Ry

     total magnetization       =    -0.00 Bohr mag/cell
     absolute magnetization    =     0.00 Bohr mag/cell

     iteration # 54     ecut=    90.00 Ry     beta= 0.20
     Davidson diagonalization with overlap
     ethr =  3.23E-13,  avg # of iterations =  1.0

     total cpu time spent up to now is     6817.9 secs

     total energy              =   -2566.50930972 Ry
     estimated scf accuracy    <          1.4E-09 Ry

     total magnetization       =    -0.00 Bohr mag/cell
     absolute magnetization    =     0.00 Bohr mag/cell

     iteration # 55     ecut=    90.00 Ry     beta= 0.20
     Davidson diagonalization with overlap
     ethr =  3.23E-13,  avg # of iterations =  1.0

     total cpu time spent up to now is     6861.0 secs

     total energy              =   -2566.50930972 Ry
     estimated scf accuracy    <          7.2E-10 Ry

     total magnetization       =    -0.00 Bohr mag/cell
     absolute magnetization    =     0.00 Bohr mag/cell

     iteration # 56     ecut=    90.00 Ry     beta= 0.20
     Davidson diagonalization with overlap
     ethr =  3.23E-13,  avg # of iterations =  1.0

     total cpu time spent up to now is     6904.1 secs

     total energy              =   -2566.50930972 Ry
     estimated scf accuracy    <          8.6E-10 Ry

     total magnetization       =    -0.00 Bohr mag/cell
     absolute magnetization    =     0.00 Bohr mag/cell

     iteration # 57     ecut=    90.00 Ry     beta= 0.20
     Davidson diagonalization with overlap
     ethr =  3.23E-13,  avg # of iterations =  1.0

     total cpu time spent up to now is     6947.1 secs

     total energy              =   -2566.50930972 Ry
     estimated scf accuracy    <          2.4E-09 Ry

     total magnetization       =    -0.00 Bohr mag/cell
     absolute magnetization    =     0.00 Bohr mag/cell

     iteration # 58     ecut=    90.00 Ry     beta= 0.20
     Davidson diagonalization with overlap
     ethr =  3.23E-13,  avg # of iterations =  1.0

     total cpu time spent up to now is     6990.2 secs

     total energy              =   -2566.50930972 Ry
     estimated scf accuracy    <          1.2E-09 Ry

     total magnetization       =    -0.00 Bohr mag/cell
     absolute magnetization    =     0.00 Bohr mag/cell

     iteration # 59     ecut=    90.00 Ry     beta= 0.20
     Davidson diagonalization with overlap
     ethr =  3.23E-13,  avg # of iterations =  1.0

     total cpu time spent up to now is     7033.3 secs

     total energy              =   -2566.50930972 Ry
     estimated scf accuracy    <          3.9E-10 Ry

     total magnetization       =    -0.00 Bohr mag/cell
     absolute magnetization    =     0.00 Bohr mag/cell

     iteration # 60     ecut=    90.00 Ry     beta= 0.20
     Davidson diagonalization with overlap
     ethr =  2.79E-13,  avg # of iterations =  1.0

     total cpu time spent up to now is     7076.4 secs

     total energy              =   -2566.50930972 Ry
     estimated scf accuracy    <          5.6E-10 Ry

     total magnetization       =    -0.00 Bohr mag/cell
     absolute magnetization    =     0.00 Bohr mag/cell

     iteration # 61     ecut=    90.00 Ry     beta= 0.20
     Davidson diagonalization with overlap
     ethr =  2.79E-13,  avg # of iterations =  1.0

     total cpu time spent up to now is     7119.4 secs

     total energy              =   -2566.50930972 Ry
     estimated scf accuracy    <          2.8E-10 Ry

     total magnetization       =    -0.00 Bohr mag/cell
     absolute magnetization    =     0.00 Bohr mag/cell

     iteration # 62     ecut=    90.00 Ry     beta= 0.20
     Davidson diagonalization with overlap
     ethr =  1.98E-13,  avg # of iterations =  1.0

     total cpu time spent up to now is     7162.5 secs

     total energy              =   -2566.50930972 Ry
     estimated scf accuracy    <          3.1E-10 Ry

     total magnetization       =    -0.00 Bohr mag/cell
     absolute magnetization    =     0.00 Bohr mag/cell

     iteration # 63     ecut=    90.00 Ry     beta= 0.20
     Davidson diagonalization with overlap
[...]

     total cpu time spent up to now is     9385.7 secs

     total energy              =   -2566.50933012 Ry
     estimated scf accuracy    <          2.5E-09 Ry

     total magnetization       =    -0.00 Bohr mag/cell
     absolute magnetization    =     0.00 Bohr mag/cell

     iteration # 36     ecut=    90.00 Ry     beta= 0.20
     Davidson diagonalization with overlap
     ethr =  9.25E-13,  avg # of iterations =  1.0

     total cpu time spent up to now is     9429.5 secs

     total energy              =   -2566.50933012 Ry
     estimated scf accuracy    <          7.5E-10 Ry

     total magnetization       =    -0.00 Bohr mag/cell
     absolute magnetization    =     0.00 Bohr mag/cell

     iteration # 37     ecut=    90.00 Ry     beta= 0.20
     Davidson diagonalization with overlap
     ethr =  5.39E-13,  avg # of iterations =  1.0

     total cpu time spent up to now is     9473.2 secs

     total energy              =   -2566.50933012 Ry
     estimated scf accuracy    <          9.9E-10 Ry

     total magnetization       =    -0.00 Bohr mag/cell
     absolute magnetization    =     0.00 Bohr mag/cell

     iteration # 38     ecut=    90.00 Ry     beta= 0.20
     Davidson diagonalization with overlap
     ethr =  5.39E-13,  avg # of iterations =  1.0

     total cpu time spent up to now is     9517.0 secs

     total energy              =   -2566.50933012 Ry
     estimated scf accuracy    <          1.6E-09 Ry

     total magnetization       =    -0.00 Bohr mag/cell
     absolute magnetization    =     0.00 Bohr mag/cell

     iteration # 39     ecut=    90.00 Ry     beta= 0.20
     Davidson diagonalization with overlap
     ethr =  5.39E-13,  avg # of iterations =  1.0

     total cpu time spent up to now is     9560.8 secs

     total energy              =   -2566.50933012 Ry
     estimated scf accuracy    <          1.1E-09 Ry

     total magnetization       =    -0.00 Bohr mag/cell
     absolute magnetization    =     0.00 Bohr mag/cell

     iteration # 40     ecut=    90.00 Ry     beta= 0.20
     Davidson diagonalization with overlap
     ethr =  5.39E-13,  avg # of iterations =  1.0

     total cpu time spent up to now is     9604.6 secs

     total energy              =   -2566.50933012 Ry
     estimated scf accuracy    <          1.2E-09 Ry

     total magnetization       =    -0.00 Bohr mag/cell
     absolute magnetization    =     0.00 Bohr mag/cell

     iteration # 41     ecut=    90.00 Ry     beta= 0.20
     Davidson diagonalization with overlap
     ethr =  5.39E-13,  avg # of iterations =  1.0

     total cpu time spent up to now is     9648.3 secs

     total energy              =   -2566.50933012 Ry
     estimated scf accuracy    <          2.5E-09 Ry

     total magnetization       =    -0.00 Bohr mag/cell
     absolute magnetization    =     0.00 Bohr mag/cell

     iteration # 42     ecut=    90.00 Ry     beta= 0.20
     Davidson diagonalization with overlap
     ethr =  5.39E-13,  avg # of iterations =  1.0

     total cpu time spent up to now is     9692.1 secs

     total energy              =   -2566.50933012 Ry
     estimated scf accuracy    <          1.2E-09 Ry

     total magnetization       =    -0.00 Bohr mag/cell
     absolute magnetization    =     0.00 Bohr mag/cell

     iteration # 43     ecut=    90.00 Ry     beta= 0.20
     Davidson diagonalization with overlap
     ethr =  5.39E-13,  avg # of iterations =  1.0

     total cpu time spent up to now is     9735.9 secs

     total energy              =   -2566.50933012 Ry
     estimated scf accuracy    <          1.2E-09 Ry

     total magnetization       =    -0.00 Bohr mag/cell
     absolute magnetization    =     0.00 Bohr mag/cell

     iteration # 44     ecut=    90.00 Ry     beta= 0.20
     Davidson diagonalization with overlap
     ethr =  5.39E-13,  avg # of iterations =  1.0

     total cpu time spent up to now is     9779.7 secs

     total energy              =   -2566.50933012 Ry
     estimated scf accuracy    <          2.6E-09 Ry

     total magnetization       =    -0.00 Bohr mag/cell
     absolute magnetization    =     0.00 Bohr mag/cell

     iteration # 45     ecut=    90.00 Ry     beta= 0.20
     Davidson diagonalization with overlap
     ethr =  5.39E-13,  avg # of iterations =  1.0

     total cpu time spent up to now is     9823.4 secs

     total energy              =   -2566.50933012 Ry
     estimated scf accuracy    <          1.5E-09 Ry

     total magnetization       =    -0.00 Bohr mag/cell
     absolute magnetization    =     0.00 Bohr mag/cell

     iteration # 46     ecut=    90.00 Ry     beta= 0.20
     Davidson diagonalization with overlap
     ethr =  5.39E-13,  avg # of iterations =  1.6

     total cpu time spent up to now is     9870.8 secs

     total energy              =   -2566.50933012 Ry
     estimated scf accuracy    <       0.00000001 Ry

     total magnetization       =    -0.00 Bohr mag/cell
     absolute magnetization    =     0.00 Bohr mag/cell

     iteration # 47     ecut=    90.00 Ry     beta= 0.20
     Davidson diagonalization with overlap
     ethr =  5.39E-13,  avg # of iterations =  1.1

     total cpu time spent up to now is     9914.9 secs

     total energy              =   -2566.50933012 Ry
     estimated scf accuracy    <          1.3E-09 Ry

     total magnetization       =    -0.00 Bohr mag/cell
     absolute magnetization    =     0.00 Bohr mag/cell

     iteration # 48     ecut=    90.00 Ry     beta= 0.20
     Davidson diagonalization with overlap
     ethr =  5.39E-13,  avg # of iterations =  1.0

     total cpu time spent up to now is     9958.6 secs

     total energy              =   -2566.50933012 Ry
     estimated scf accuracy    <          1.5E-09 Ry

     total magnetization       =    -0.00 Bohr mag/cell
     absolute magnetization    =     0.00 Bohr mag/cell

     iteration # 49     ecut=    90.00 Ry     beta= 0.20
     Davidson diagonalization with overlap
     ethr =  5.39E-13,  avg # of iterations =  1.0

     total cpu time spent up to now is    10002.3 secs

     total energy              =   -2566.50933012 Ry
     estimated scf accuracy    <          1.0E-09 Ry

     total magnetization       =    -0.00 Bohr mag/cell
     absolute magnetization    =     0.00 Bohr mag/cell

     iteration # 50     ecut=    90.00 Ry     beta= 0.20
     Davidson diagonalization with overlap
     ethr =  5.39E-13,  avg # of iterations =  1.0

     total cpu time spent up to now is    10046.1 secs

     total energy              =   -2566.50933012 Ry
     estimated scf accuracy    <          1.0E-09 Ry

     total magnetization       =    -0.00 Bohr mag/cell
     absolute magnetization    =     0.00 Bohr mag/cell

     iteration # 51     ecut=    90.00 Ry     beta= 0.20
     Davidson diagonalization with overlap
     ethr =  5.39E-13,  avg # of iterations =  1.0

     total cpu time spent up to now is    10089.8 secs

     total energy              =   -2566.50933012 Ry
     estimated scf accuracy    <          2.7E-09 Ry

     total magnetization       =    -0.00 Bohr mag/cell
     absolute magnetization    =     0.00 Bohr mag/cell

     iteration # 52     ecut=    90.00 Ry     beta= 0.20
     Davidson diagonalization with overlap
     ethr =  5.39E-13,  avg # of iterations =  1.0

     total cpu time spent up to now is    10133.6 secs

     total energy              =   -2566.50933012 Ry
     estimated scf accuracy    <          9.4E-10 Ry

     total magnetization       =    -0.00 Bohr mag/cell
     absolute magnetization    =     0.00 Bohr mag/cell

     iteration # 53     ecut=    90.00 Ry     beta= 0.20
     Davidson diagonalization with overlap
     ethr =  5.39E-13,  avg # of iterations =  1.0

     total cpu time spent up to now is    10177.3 secs

     total energy              =   -2566.50933012 Ry
     estimated scf accuracy    <          6.4E-10 Ry

     total magnetization       =    -0.00 Bohr mag/cell
     absolute magnetization    =     0.00 Bohr mag/cell

     iteration # 54     ecut=    90.00 Ry     beta= 0.20
     Davidson diagonalization with overlap
     ethr =  4.56E-13,  avg # of iterations =  1.0

     total cpu time spent up to now is    10221.2 secs

     total energy              =   -2566.50933012 Ry
     estimated scf accuracy    <          2.9E-09 Ry

     total magnetization       =     0.00 Bohr mag/cell
     absolute magnetization    =     0.00 Bohr mag/cell

     iteration # 55     ecut=    90.00 Ry     beta= 0.20
     Davidson diagonalization with overlap
     ethr =  4.56E-13,  avg # of iterations =  1.0

     total cpu time spent up to now is    10264.9 secs

     total energy              =   -2566.50933012 Ry
     estimated scf accuracy    <          4.5E-10 Ry

     total magnetization       =     0.00 Bohr mag/cell
     absolute magnetization    =     0.00 Bohr mag/cell

     iteration # 56     ecut=    90.00 Ry     beta= 0.20
     Davidson diagonalization with overlap
     ethr =  3.25E-13,  avg # of iterations =  1.0

     total cpu time spent up to now is    10308.7 secs

     total energy              =   -2566.50933012 Ry
     estimated scf accuracy    <          1.7E-09 Ry

     total magnetization       =     0.00 Bohr mag/cell
     absolute magnetization    =     0.00 Bohr mag/cell

     iteration # 57     ecut=    90.00 Ry     beta= 0.20
     Davidson diagonalization with overlap
     ethr =  3.25E-13,  avg # of iterations =  1.0

     total cpu time spent up to now is    10352.5 secs

     total energy              =   -2566.50933012 Ry
     estimated scf accuracy    <          4.6E-10 Ry

     total magnetization       =     0.00 Bohr mag/cell
     absolute magnetization    =     0.00 Bohr mag/cell

     iteration # 58     ecut=    90.00 Ry     beta= 0.20
     Davidson diagonalization with overlap
     ethr =  3.25E-13,  avg # of iterations =  1.0

     total cpu time spent up to now is    10396.2 secs

     total energy              =   -2566.50933012 Ry
     estimated scf accuracy    <          4.8E-10 Ry

     total magnetization       =     0.00 Bohr mag/cell
     absolute magnetization    =     0.00 Bohr mag/cell

     iteration # 59     ecut=    90.00 Ry     beta= 0.20
     Davidson diagonalization with overlap
     ethr =  3.25E-13,  avg # of iterations =  1.0

     total cpu time spent up to now is    10440.0 secs

     total energy              =   -2566.50933012 Ry
     estimated scf accuracy    <          2.7E-10 Ry

     total magnetization       =     0.00 Bohr mag/cell
     absolute magnetization    =     0.00 Bohr mag/cell

     iteration # 60     ecut=    90.00 Ry     beta= 0.20
     Davidson diagonalization with overlap
     ethr =  1.96E-13,  avg # of iterations =  1.0

     total cpu time spent up to now is    10483.7 secs

     total energy              =   -2566.50933012 Ry
     estimated scf accuracy    <          2.7E-10 Ry

     total magnetization       =     0.00 Bohr mag/cell
     absolute magnetization    =     0.00 Bohr mag/cell

     iteration # 61     ecut=    90.00 Ry     beta= 0.20
     Davidson diagonalization with overlap
     ethr =  1.95E-13,  avg # of iterations =  1.0

     total cpu time spent up to now is    10527.4 secs

     total energy              =   -2566.50933012 Ry
     estimated scf accuracy    <          8.2E-10 Ry

     total magnetization       =     0.00 Bohr mag/cell
     absolute magnetization    =     0.00 Bohr mag/cell

     iteration # 62     ecut=    90.00 Ry     beta= 0.20
     Davidson diagonalization with overlap
     ethr =  1.95E-13,  avg # of iterations =  1.0

     total cpu time spent up to now is    10571.2 secs

     total energy              =   -2566.50933012 Ry
     estimated scf accuracy    <          3.1E-10 Ry

     total magnetization       =     0.00 Bohr mag/cell
     absolute magnetization    =     0.00 Bohr mag/cell

     iteration # 63     ecut=    90.00 Ry     beta= 0.20
     Davidson diagonalization with overlap
     ethr =  1.95E-13,  avg # of iterations =  1.0

     total cpu time spent up to now is    10615.0 secs

     total energy              =   -2566.50933012 Ry
     estimated scf accuracy    <          3.0E-10 Ry

     total magnetization       =     0.00 Bohr mag/cell
     absolute magnetization    =     0.00 Bohr mag/cell

     iteration # 64     ecut=    90.00 Ry     beta= 0.20
     Davidson diagonalization with overlap
     ethr =  1.95E-13,  avg # of iterations =  1.0

     total cpu time spent up to now is    10658.7 secs

     total energy              =   -2566.50933012 Ry
     estimated scf accuracy    <          2.7E-10 Ry

     total magnetization       =     0.00 Bohr mag/cell
     absolute magnetization    =     0.00 Bohr mag/cell

     iteration # 65     ecut=    90.00 Ry     beta= 0.20
     Davidson diagonalization with overlap
     ethr =  1.95E-13,  avg # of iterations =  1.0

     total cpu time spent up to now is    10702.4 secs

     total energy              =   -2566.50933012 Ry
     estimated scf accuracy    <          7.9E-10 Ry

     total magnetization       =     0.00 Bohr mag/cell
     absolute magnetization    =     0.00 Bohr mag/cell

     iteration # 66     ecut=    90.00 Ry     beta= 0.20
     Davidson diagonalization with overlap
     ethr =  1.95E-13,  avg # of iterations =  1.0

     total cpu time spent up to now is    10746.2 secs

     total energy              =   -2566.50933012 Ry
     estimated scf accuracy    <          5.2E-10 Ry

     total magnetization       =     0.00 Bohr mag/cell
     absolute magnetization    =     0.00 Bohr mag/cell

     iteration # 67     ecut=    90.00 Ry     beta= 0.20
     Davidson diagonalization with overlap
     ethr =  1.95E-13,  avg # of iterations =  1.0

     total cpu time spent up to now is    10790.2 secs

     total energy              =   -2566.50933012 Ry
     estimated scf accuracy    <          3.8E-10 Ry

     total magnetization       =     0.00 Bohr mag/cell
     absolute magnetization    =     0.00 Bohr mag/cell

     iteration # 68     ecut=    90.00 Ry     beta= 0.20
     Davidson diagonalization with overlap
     ethr =  1.95E-13,  avg # of iterations =  1.0

     total cpu time spent up to now is    10834.0 secs

     total energy              =   -2566.50933012 Ry
     estimated scf accuracy    <          3.5E-10 Ry

     total magnetization       =     0.00 Bohr mag/cell
     absolute magnetization    =     0.00 Bohr mag/cell

     iteration # 69     ecut=    90.00 Ry     beta= 0.20
     Davidson diagonalization with overlap
     ethr =  1.95E-13,  avg # of iterations =  1.0

     total cpu time spent up to now is    10877.7 secs

     total energy              =   -2566.50933012 Ry
     estimated scf accuracy    <          3.2E-10 Ry

     total magnetization       =     0.00 Bohr mag/cell
     absolute magnetization    =     0.00 Bohr mag/cell

     iteration # 70     ecut=    90.00 Ry     beta= 0.20
     Davidson diagonalization with overlap
     ethr =  1.95E-13,  avg # of iterations =  1.0

     total cpu time spent up to now is    10922.3 secs

     total energy              =   -2566.50933012 Ry
     estimated scf accuracy    <          4.4E-10 Ry

     total magnetization       =     0.00 Bohr mag/cell
     absolute magnetization    =     0.00 Bohr mag/cell

     iteration # 71     ecut=    90.00 Ry     beta= 0.20
     Davidson diagonalization with overlap
     ethr =  1.95E-13,  avg # of iterations =  1.0

     total cpu time spent up to now is    10966.1 secs

     total energy              =   -2566.50933012 Ry
     estimated scf accuracy    <          8.0E-10 Ry

     total magnetization       =     0.00 Bohr mag/cell
     absolute magnetization    =     0.00 Bohr mag/cell

     iteration # 72     ecut=    90.00 Ry     beta= 0.20
     Davidson diagonalization with overlap
     ethr =  1.95E-13,  avg # of iterations =  1.0

     total cpu time spent up to now is    11009.9 secs

     total energy              =   -2566.50933012 Ry
     estimated scf accuracy    <          1.2E-09 Ry

     total magnetization       =     0.00 Bohr mag/cell
     absolute magnetization    =     0.00 Bohr mag/cell

     iteration # 73     ecut=    90.00 Ry     beta= 0.20
     Davidson diagonalization with overlap
     ethr =  1.95E-13,  avg # of iterations =  1.0

     total cpu time spent up to now is    11053.7 secs

     total energy              =   -2566.50933012 Ry
     estimated scf accuracy    <          2.6E-10 Ry

     total magnetization       =     0.00 Bohr mag/cell
     absolute magnetization    =     0.00 Bohr mag/cell

     iteration # 74     ecut=    90.00 Ry     beta= 0.20
     Davidson diagonalization with overlap
     ethr =  1.86E-13,  avg # of iterations =  1.0

     Magnetic moment per site:
     atom:    1    charge:   16.2810    magn:    0.0000    constr:    0.0000
     atom:    2    charge:   15.1602    magn:    0.0000    constr:    0.0000
     atom:    3    charge:   16.2810    magn:   -0.0000    constr:    0.0000
     atom:    4    charge:   15.1602    magn:    0.0000    constr:    0.0000
     atom:    5    charge:   16.2810    magn:    0.0000    constr:    0.0000
     atom:    6    charge:   15.1602    magn:    0.0000    constr:    0.0000
     atom:    7    charge:   16.2810    magn:    0.0000    constr:    0.0000
     atom:    8    charge:   15.1602    magn:    0.0000    constr:    0.0000

     total cpu time spent up to now is    11097.5 secs

     End of self-consistent calculation

     Number of k-points >= 100: set verbosity='high' to print the bands.

     the Fermi energy is    15.4923 ev

!    total energy              =   -2566.50933012 Ry
     estimated scf accuracy    <          1.1E-10 Ry
     smearing contrib. (-TS)   =      -0.01716756 Ry
     internal energy E=F+TS    =   -2566.49216255 Ry

     The total energy is F=E-TS. E is the sum of the following terms:
     one-electron contribution =   -1553.89911950 Ry
     hartree contribution      =     854.95886714 Ry
     xc contribution           =    -272.59940465 Ry
     ewald contribution        =   -1594.95250554 Ry

     total magnetization       =     0.00 Bohr mag/cell
     absolute magnetization    =     0.00 Bohr mag/cell

     convergence has been achieved in  74 iterations

     Forces acting on atoms (cartesian axes, Ry/au):

     atom    1 type  1   force =    -0.00042707    0.00100398   -0.00083119
     atom    2 type  2   force =    -0.00035878    0.00034862    0.00142264
     atom    3 type  1   force =    -0.00042841    0.00100468   -0.00083178
     atom    4 type  2   force =    -0.00036004    0.00034569    0.00142126
     atom    5 type  1   force =     0.00007613   -0.00135149   -0.00003021
     atom    6 type  2   force =     0.00070152   -0.00000190   -0.00056058
     atom    7 type  1   force =     0.00008503   -0.00134957   -0.00002966
     atom    8 type  2   force =     0.00071161   -0.00000001   -0.00056048

     Total force =     0.003688     Total SCF correction =     0.000015


     Computing stress (Cartesian axis) and pressure

          total   stress  (Ry/bohr**3)                   (kbar)     P=       -3.13
   0.00001466  -0.00000002   0.00000002            2.16       -0.00        0.00
  -0.00000002  -0.00009430  -0.00000015           -0.00      -13.87       -0.02
   0.00000002  -0.00000015   0.00001587            0.00       -0.02        2.33

     Energy error            =      2.0E-05
     Gradient error          =      1.4E-03

     number of scf cycles    =  10
     number of bfgs steps    =   8

     energy   old            =   -2566.5093505853 Ry
     energy   new            =   -2566.5093301171 Ry

     CASE: energy  _new > energy  _old


 %%%%%%%%%%%%%%%%%%%%%%%%%%%%%%%%%%%%%%%%%%%%%%%%%%%%%%%%%%%%%%%%%%%%%%%%%%%%%%
     Error in routine bfgs (1):
     dE0s is positive which should never happen
 %%%%%%%%%%%%%%%%%%%%%%%%%%%%%%%%%%%%%%%%%%%%%%%%%%%%%%%%%%%%%%%%%%%%%%%%%%%%%%

     stopping ...
Abort(1) on node 0 (rank 0 in comm 0): application called MPI_Abort(MPI_COMM_WORLD, 1) - process 0
