 # File generated with Atomsk by kevin on 2022-03-20 17:48:01
 
           8  atoms
           2  atom types
 
      0.000000000000       4.630336500000  xlo xhi
      0.000000000000       4.607300000000  ylo yhi
      0.000000000000       4.607300000000  zlo zhi
 
Masses
 
            1   58.93319500             # Co
            2   0.00000000              # XX
 
Atoms # atomic
 
         1    1        0.000264734002       0.005049032991       0.000695684068
         2    5        2.317280677959       2.298548165488       2.311797411052
         3    1        0.000264734002       2.308699032991       2.304345684068
         4    5        2.317280677959      -0.005101834512       0.008147411052
         5    1        2.315432984002       2.308699032991       0.000695684068
         6    5        0.000264734002       0.005049032991       2.304345684068
         7    1        2.315432984002       0.005049032991       2.304345684068
         8    5        0.000264734002       2.308699032991       0.000695684068
