LAMMPS data file via write_data, version 10 Mar 2021, timestep = 0
4 atoms
1 atom types
4 atoms
1 atom types
0.0 2.46065097363807 xlo xhi
0.0 2.36198306863543 ylo yhi
0.0 7.90550566310625 zlo zhi
-0.689811622651883 -0.000152644768460474 0.000479664822828304 xy xz yz

Masses

1 55.84500
Atoms

1 1	2.4587879159       -0.0995358515        3.9512986479
2 1	0.8698474214        1.1266677670        5.9305106988
3 1	2.4589647580       -0.0996479565        7.9040666743
4 1	0.8696711829        1.1267762350        1.9777401129
