LAMMPS data file via write_data, version 10 Mar 2021, timestep = 0
2 atoms
1 atom types
2 atoms
1 atom types
0.0 2.44961661924154 xlo xhi
0.0 2.42488496908793 ylo yhi
0.0 3.95305212265928 zlo zhi
-0.347210291557985 0.0030731314334303 -0.00463650558108914 xy xz yz

Masses

1 55.84500
Atoms

1 1	1.0003222681        1.0180540684        1.9765255713
2 1	-0.0000011037       -0.0000002198       -0.0000000147
