LAMMPS data file

1 atoms
1 atom types

0.0 2.56890737138401 xlo xhi
0.0 2.22481859137251 ylo yhi
0.0 2.09755734456411 zlo zhi
1.28439047173983 1.28439126998103 0.741579201795429 xy xz yz


Atoms

1 1 0.0000000000 0.0000000000 0.0000000000
