 # H
  
           1  atoms
           1  atom types
 
      0.000000000000       2.483270000000  xlo xhi
      0.000000000000       2.275241558265  ylo yhi
      0.000000000000       2.185081963858  zlo zhi
      1.192695712050       1.210253383077       0.599958973573  xy xz yz
 
Masses
 
            1   1.00800000              # H
 
Atoms # atomic
 
         1    1        0.047030550703       0.973581470289       0.888834636926
