 # H
  
           1  atoms
           1  atom types
 
      0.000000000000       2.526085000000  xlo xhi
      0.000000000000       2.108657844202  ylo yhi
      0.000000000000       1.981625551358  zlo zhi
     -1.058839517443      -1.065316940712       0.733869239831  xy xz yz
 
Masses
 
            1   1.00800000              # H
 
Atoms # atomic
 
         1    1        0.011840618563       0.873069192800       0.111834735028
