 # H
  
           1  atoms
           1  atom types
 
      0.000000000000       2.526085000000  xlo xhi
      0.000000000000       2.184895629413  ylo yhi
      0.000000000000       2.068304495436  zlo zhi
     -1.258277240204      -1.149144833434       0.455255663429  xy xz yz
 
Masses
 
            1   1.00800000              # H
 
Atoms # atomic
 
         1    1        0.105790906669       0.932082183248       0.937891427638
