 # H
  
           1  atoms
           1  atom types
 
      0.000000000000       2.440455000000  xlo xhi
      0.000000000000       2.056384078626  ylo yhi
      0.000000000000       2.021308180143  zlo zhi
     -1.126261282088       1.200110994995       0.655642774384  xy xz yz
 
Masses
 
            1   1.00800000              # H
 
Atoms # atomic
 
         1    1        0.891851987789       0.024332955840       0.030472939486
