 # H
  
           1  atoms
           1  atom types
 
      0.000000000000       2.611715000000  xlo xhi
      0.000000000000       2.291074230262  ylo yhi
      0.000000000000       2.093464367985  zlo zhi
      1.253807845188       1.209459464775       0.868252240449  xy xz yz
 
Masses
 
            1   1.00800000              # H
 
Atoms # atomic
 
         1    1        0.015324241498       0.049983885315       0.885650604384
