 # H
  
           1  atoms
           1  atom types
 
      0.000000000000       2.611715000000  xlo xhi
      0.000000000000       2.230226846484  ylo yhi
      0.000000000000       2.131707273987  zlo zhi
     -1.252618441824       1.196636265959       0.919206715733  xy xz yz
 
Masses
 
            1   1.00800000              # H
 
Atoms # atomic
 
         1    1        0.092032290447       0.873274910984       0.938518138514
