 # H
  
           1  atoms
           1  atom types
 
      0.000000000000       2.654530000000  xlo xhi
      0.000000000000       2.204395837393  ylo yhi
      0.000000000000       2.032752998078  zlo zhi
      1.319047460133      -1.323776592446       0.834420653560  xy xz yz
 
Masses
 
            1   1.00800000              # H
 
Atoms # atomic
 
         1    1        0.941174934773       0.922599799411       0.896504155089
