 # H
  
           1  atoms
           1  atom types
 
      0.000000000000       2.697345000000  xlo xhi
      0.000000000000       2.341573990468  ylo yhi
      0.000000000000       2.023758192379  zlo zhi
      1.338917957229      -1.232349131536       0.597860430337  xy xz yz
 
Masses
 
            1   1.00800000              # H
 
Atoms # atomic
 
         1    1        0.997902662776       0.939213414801       0.932093716060
