 # H
  
           1  atoms
           1  atom types
 
      0.000000000000       2.611715000000  xlo xhi
      0.000000000000       2.169125396460  ylo yhi
      0.000000000000       1.952396645408  zlo zhi
     -1.235436603588      -1.141190537118       0.790539279900  xy xz yz
 
Masses
 
            1   1.00800000              # H
 
Atoms # atomic
 
         1    1        0.931419261565       0.095963595759       0.107892595759
