 # H
  
           1  atoms
           1  atom types
 
      0.000000000000       2.654530000000  xlo xhi
      0.000000000000       2.215303628377  ylo yhi
      0.000000000000       2.059514915722  zlo zhi
     -1.192011844558      -1.168361390233       0.772159760776  xy xz yz
 
Masses
 
            1   1.00800000              # H
 
Atoms # atomic
 
         1    1        0.979203868112       0.019867189411       0.128361487122
