 # H
  
           1  atoms
           1  atom types
 
      0.000000000000       2.654530000000  xlo xhi
      0.000000000000       2.265071490078  ylo yhi
      0.000000000000       2.034447766432  zlo zhi
     -1.270340466109      -1.222376182584       0.639691284075  xy xz yz
 
Masses
 
            1   1.00800000              # H
 
Atoms # atomic
 
         1    1        0.036419088466       0.041518874638       0.080482150678
