 # H
  
           1  atoms
           1  atom types
 
      0.000000000000       2.697345000000  xlo xhi
      0.000000000000       2.443202035726  ylo yhi
      0.000000000000       2.147961364272  zlo zhi
      1.142993377781       1.332449298459       0.941547074582  xy xz yz
 
Masses
 
            1   1.00800000              # H
 
Atoms # atomic
 
         1    1        0.953497185655       0.129613911401       0.089434671603
