 # H
  
           1  atoms
           1  atom types
 
      0.000000000000       2.440455000000  xlo xhi
      0.000000000000       2.145523231852  ylo yhi
      0.000000000000       2.195084339296  zlo zhi
     -1.027664402783       1.117489688327       0.729430428391  xy xz yz
 
Masses
 
            1   1.00800000              # H
 
Atoms # atomic
 
         1    1        0.024396693891       0.112354562382       0.043127524774
