 # H
  
           1  atoms
           1  atom types
 
      0.000000000000       2.697345000000  xlo xhi
      0.000000000000       2.193087069535  ylo yhi
      0.000000000000       1.994911851206  zlo zhi
      1.337765418688      -1.326614991816       0.860623704403  xy xz yz
 
Masses
 
            1   1.00800000              # H
 
Atoms # atomic
 
         1    1        0.116769018943       0.948908222187       0.937456012865
