 # H
  
           1  atoms
           1  atom types
 
      0.000000000000       2.483270000000  xlo xhi
      0.000000000000       2.081084430203  ylo yhi
      0.000000000000       2.001432701739  zlo zhi
     -1.128383478085      -1.190512947743       0.699768702606  xy xz yz
 
Masses
 
            1   1.00800000              # H
 
Atoms # atomic
 
         1    1        0.989463886947       0.112514139139       0.033975434519
