 # H
  
           1  atoms
           1  atom types
 
      0.000000000000       2.440455000000  xlo xhi
      0.000000000000       2.035183997582  ylo yhi
      0.000000000000       2.086484218412  zlo zhi
     -1.093663738144      -0.247362089339      -1.016809650430  xy xz yz
 
Masses
 
            1   1.00800000              # H
 
Atoms # atomic
 
         1    1        0.992510419695       0.119536147096       0.010210299609
