 # File generated with Atomsk by kevin on 2022-03-20 17:48:01
 
           8  atoms
           2  atom types
 
      0.000000000000       4.573000000000  xlo xhi
      0.000000000000       4.573000000000  ylo yhi
      0.000000000000       4.573000000000  zlo zhi
      0.000000000000      -0.022865000000       0.000000000000  xy xz yz
 
Masses
 
            1   58.93319500             # Co
            2   0.00000000              # XX
 
Atoms # atomic
 
         1    1        0.006750458326      -0.004158646115      -0.008541948198
         2    4        2.265713243536       2.290363919420       2.291104457414
         3    1       -0.004682041674       2.282341353885       2.277958051802
         4    4        2.277145743536       0.003863919420       0.004604457414
         5    1        2.293250458326       2.282341353885      -0.008541948198
         6    4       -0.004682041674      -0.004158646115       2.277958051802
         7    1        2.281817958326      -0.004158646115       2.277958051802
         8    4        0.006750458326       2.282341353885      -0.008541948198
