 # File generated with Atomsk by kevin on 2022-03-20 17:48:01
 
           8  atoms
           2  atom types
 
      0.000000000000       4.573000000000  xlo xhi
      0.000000000000       4.573000000000  ylo yhi
      0.000000000000       4.573000000000  zlo zhi
     -0.022865000000       0.000000000000       0.000000000000  xy xz yz
 
Masses
 
            1   58.93319500             # Co
            2   0.00000000              # XX
 
Atoms # atomic
 
         1    1       -0.000482030419      -0.005087425717       0.001018086412
         2    4        2.273996821942       2.282339691300       2.279731312298
         3    1       -0.011914530419       2.281412574283       2.287518086412
         4    4        2.285429321942      -0.004160308700      -0.006768687702
         5    1        2.274585469581       2.281412574283       0.001018086412
         6    4       -0.000482030419      -0.005087425717       2.287518086412
         7    1        2.286017969581      -0.005087425717       2.287518086412
         8    4       -0.011914530419       2.281412574283       0.001018086412
