 # File generated with Atomsk by kevin on 2022-03-20 17:48:01
 
           8  atoms
           2  atom types
 
      0.000000000000       4.573000000000  xlo xhi
      0.000000000000       4.573000000000  ylo yhi
      0.000000000000       4.550135000000  zlo zhi
 
Masses
 
            1   58.93319500             # Co
            2   0.00000000              # XX
 
Atoms # atomic
 
         1    1        0.006562690460      -0.005834243993       0.003447081348
         2    4        2.292174654689       2.282012307685       2.272140410581
         3    1        0.006562690460       2.280665756007       2.278514581348
         4    4        2.292174654689      -0.004487692315      -0.002927089419
         5    1        2.293062690460       2.280665756007       0.003447081348
         6    4        0.006562690460      -0.005834243993       2.278514581348
         7    1        2.293062690460      -0.005834243993       2.278514581348
         8    4        0.006562690460       2.280665756007       0.003447081348
