 # File generated with Atomsk by kevin on 2022-03-20 17:48:01
 
           8  atoms
           2  atom types
 
      0.000000000000       4.550135000000  xlo xhi
      0.000000000000       4.573000000000  ylo yhi
      0.000000000000       4.573000000000  zlo zhi
 
Masses
 
            1   58.93319500             # Co
            2   0.00000000              # XX
 
Atoms # atomic
 
         1    1        0.003999294878       0.009311157875      -0.000618676903
         2    4        2.269997872075       2.278371535171       2.281370620796
         3    1        0.003999294878       2.295811157875       2.285881323097
         4    4        2.269997872075      -0.008128464829      -0.005129379204
         5    1        2.279066794878       2.295811157875      -0.000618676903
         6    4        0.003999294878       0.009311157875       2.285881323097
         7    1        2.279066794878       0.009311157875       2.285881323097
         8    4        0.003999294878       2.295811157875      -0.000618676903
