 # File generated with Atomsk by kevin on 2022-03-20 17:48:01
 
           8  atoms
           2  atom types
 
      0.000000000000       4.573000000000  xlo xhi
      0.000000000000       4.550135000000  ylo yhi
      0.000000000000       4.573000000000  zlo zhi
 
Masses
 
            1   58.93319500             # Co
            2   0.00000000              # XX
 
Atoms # atomic
 
         1    1        0.006017076498       0.006245498302      -0.002540513776
         2    4        2.295290137571       2.272214443314       2.294771307223
         3    1        0.006017076498       2.281312998302       2.283959486224
         4    4        2.295290137571      -0.002853056686       0.008271307223
         5    1        2.292517076498       2.281312998302      -0.002540513776
         6    4        0.006017076498       0.006245498302       2.283959486224
         7    1        2.292517076498       0.006245498302       2.283959486224
         8    4        0.006017076498       2.281312998302      -0.002540513776
