
     Program PWSCF v.6.7MaX starts on 21Mar2022 at 13:25:59 

     This program is part of the open-source Quantum ESPRESSO suite
     for quantum simulation of materials; please cite
         "P. Giannozzi et al., J. Phys.:Condens. Matter 21 395502 (2009);
         "P. Giannozzi et al., J. Phys.:Condens. Matter 29 465901 (2017);
          URL http://www.quantum-espresso.org", 
     in publications or presentations arising from this work. More details at
     http://www.quantum-espresso.org/quote

     Parallel version (MPI), running on    24 processors

     MPI processes distributed on     1 nodes
     R & G space division:  proc/nbgrp/npool/nimage =      24
     Reading input from /home/kevin/QE_CoCrFeMnNi/CoCrFeMnNi/Opt/binary/Opt-B1-CoMn/Mix/elastic/Chg-5-B1-CoMn.in

     Current dimensions of program PWSCF are:
     Max number of different atomic species (ntypx) = 10
     Max number of k-points (npk) =  40000
     Max angular momentum in pseudopotentials (lmaxx) =  3

     Subspace diagonalization in iterative solution of the eigenvalue problem:
     a serial algorithm will be used

     Found symmetry operation: I + ( -0.0000 -0.5000  0.5000)
     This is a supercell, fractional translations are disabled

     Parallelization info
     --------------------
     sticks:   dense  smooth     PW     G-vecs:    dense   smooth      PW
     Min         267      89     25                16108     3100     463
     Max         268      90     26                16110     3102     468
     Sum        6417    2145    601               386617    74421   11179



     bravais-lattice index     =            0
     lattice parameter (alat)  =       8.6417  a.u.
     unit-cell volume          =     645.3573 (a.u.)^3
     number of atoms/cell      =            8
     number of atomic types    =            2
     number of electrons       =       128.00
     number of Kohn-Sham states=           77
     kinetic-energy cutoff     =      90.0000  Ry
     charge density cutoff     =    1080.0000  Ry
     scf convergence threshold =      1.0E-08
     mixing beta               =       0.2000
     number of iterations used =            8  plain     mixing
     energy convergence thresh.=      1.0E-05
     force convergence thresh. =      1.0E-04
     Exchange-correlation= SLA  PW   PBE  PBE
                           (   1   4   3   4   0   0   0)
     nstep                     =          100


     celldm(1)=   8.641718  celldm(2)=   0.000000  celldm(3)=   0.000000
     celldm(4)=   0.000000  celldm(5)=   0.000000  celldm(6)=   0.000000

     crystal axes: (cart. coord. in units of alat)
               a(1) = (   1.000000   0.000000   0.000000 )  
               a(2) = (   0.000000   1.000000   0.000000 )  
               a(3) = (  -0.005000   0.000000   1.000000 )  

     reciprocal axes: (cart. coord. in units 2 pi/alat)
               b(1) = (  1.000000 -0.000000  0.005000 )  
               b(2) = (  0.000000  1.000000 -0.000000 )  
               b(3) = (  0.000000  0.000000  1.000000 )  


     PseudoPot. # 1 for Mn read from file:
     /opt/QEpot/SSSP_efficiency_pseudos/mn_pbe_v1.5.uspp.F.UPF
     MD5 check sum: 82ef2b46521d7a7d9e736dc3972e4928
     Pseudo is Ultrasoft + core correction, Zval = 15.0
     Generated by new atomic code, or converted to UPF format
     Using radial grid of  859 points,  6 beta functions with: 
                l(1) =   0
                l(2) =   0
                l(3) =   1
                l(4) =   1
                l(5) =   2
                l(6) =   2
     Q(r) pseudized with  8 coefficients,  rinner =    0.950   0.950   0.950
                                                       0.950   0.950

     PseudoPot. # 2 for Co read from file:
     /opt/QEpot/SSSP_efficiency_pseudos/Co_pbe_v1.2.uspp.F.UPF
     MD5 check sum: 5f91765df6ddd3222702df6e7b74a16d
     Pseudo is Ultrasoft + core correction, Zval = 17.0
     Generated by new atomic code, or converted to UPF format
     Using radial grid of  863 points,  6 beta functions with: 
                l(1) =   0
                l(2) =   0
                l(3) =   1
                l(4) =   1
                l(5) =   2
                l(6) =   2
     Q(r) pseudized with  8 coefficients,  rinner =    1.200   1.200   1.200
                                                       1.200   1.200

     atomic species   valence    mass     pseudopotential
        Mn            15.00    54.93800     Mn( 1.00)
        Co            17.00    58.93300     Co( 1.00)

     Starting magnetic structure 
     atomic species   magnetization
        Mn           0.000
        Co           0.000

     No symmetry found



   Cartesian axes

     site n.     atom                  positions (alat units)
         1           Mn  tau(   1) = (   0.0014762   0.4990906  -0.0018679  )
         2           Co  tau(   2) = (   0.4989762  -0.0009094   0.4981321  )
         3           Mn  tau(   3) = (  -0.0010238  -0.0009094   0.4981321  )
         4           Co  tau(   4) = (   0.5014762   0.4990906  -0.0018679  )
         5           Mn  tau(   5) = (   0.4979545   0.0008449   0.0010069  )
         6           Co  tau(   6) = (  -0.0010238   0.4990906   0.4981321  )
         7           Mn  tau(   7) = (   0.4954545   0.5008449   0.5010069  )
         8           Co  tau(   8) = (   0.0014762  -0.0009094  -0.0018679  )

     number of k points=   112  Gaussian smearing, width (Ry)=  0.0100

     Number of k-points >= 100: set verbosity='high' to print them.

     Dense  grid:   386617 G-vectors     FFT dimensions: (  96,  96,  96)

     Smooth grid:    74421 G-vectors     FFT dimensions: (  54,  54,  54)

     Estimated max dynamical RAM per process >     174.15 MB

     Estimated total dynamical RAM >       4.08 GB

     Check: negative core charge=   -0.000017
     Generating pointlists ...
     new r_m :   0.2048 (alat units)  1.7698 (a.u.) for type    1
     new r_m :   0.2048 (alat units)  1.7698 (a.u.) for type    2

     Initial potential from superposition of free atoms

     starting charge  121.99963, renormalised to  128.00000
     Starting wfcs are  104 randomized atomic wfcs

     total cpu time spent up to now is       24.2 secs

     Self-consistent Calculation

     iteration #  1     ecut=    90.00 Ry     beta= 0.20
     Davidson diagonalization with overlap
     ethr =  1.00E-02,  avg # of iterations =  2.6

     total cpu time spent up to now is       77.6 secs

     total energy              =   -2029.07138545 Ry
     estimated scf accuracy    <      50.31587201 Ry

     total magnetization       =    -0.00 Bohr mag/cell
     absolute magnetization    =     0.01 Bohr mag/cell

     iteration #  2     ecut=    90.00 Ry     beta= 0.20
     Davidson diagonalization with overlap
     ethr =  1.00E-02,  avg # of iterations =  4.1

     total cpu time spent up to now is      147.1 secs

     total energy              =   -2036.05196797 Ry
     estimated scf accuracy    <      51.63687839 Ry

     total magnetization       =     0.00 Bohr mag/cell
     absolute magnetization    =     0.01 Bohr mag/cell

     iteration #  3     ecut=    90.00 Ry     beta= 0.20
     Davidson diagonalization with overlap
     ethr =  1.00E-02,  avg # of iterations =  2.5

     total cpu time spent up to now is      196.6 secs

     total energy              =   -2036.02810434 Ry
     estimated scf accuracy    <       5.19833649 Ry

     total magnetization       =    -0.01 Bohr mag/cell
     absolute magnetization    =     0.03 Bohr mag/cell

     iteration #  4     ecut=    90.00 Ry     beta= 0.20
     Davidson diagonalization with overlap
     ethr =  4.06E-03,  avg # of iterations =  4.8

     total cpu time spent up to now is      264.1 secs

     total energy              =   -2034.45165990 Ry
     estimated scf accuracy    <      71.25748259 Ry

     total magnetization       =    -0.00 Bohr mag/cell
     absolute magnetization    =     0.01 Bohr mag/cell

     iteration #  5     ecut=    90.00 Ry     beta= 0.20
     Davidson diagonalization with overlap
     ethr =  4.06E-03,  avg # of iterations =  3.5

     total cpu time spent up to now is      318.7 secs

     total energy              =   -2038.25367902 Ry
     estimated scf accuracy    <       1.62391332 Ry

     total magnetization       =     0.01 Bohr mag/cell
     absolute magnetization    =     0.02 Bohr mag/cell

     iteration #  6     ecut=    90.00 Ry     beta= 0.20
     Davidson diagonalization with overlap
     ethr =  1.27E-03,  avg # of iterations =  2.8

     total cpu time spent up to now is      365.2 secs

     total energy              =   -2038.26699543 Ry
     estimated scf accuracy    <       3.13103751 Ry

     total magnetization       =    -0.00 Bohr mag/cell
     absolute magnetization    =     0.01 Bohr mag/cell

     iteration #  7     ecut=    90.00 Ry     beta= 0.20
     Davidson diagonalization with overlap
     ethr =  1.27E-03,  avg # of iterations =  1.1

     total cpu time spent up to now is      404.2 secs

     total energy              =   -2038.22781779 Ry
     estimated scf accuracy    <       2.48462682 Ry

     total magnetization       =    -0.00 Bohr mag/cell
     absolute magnetization    =     0.01 Bohr mag/cell

     iteration #  8     ecut=    90.00 Ry     beta= 0.20
     Davidson diagonalization with overlap
     ethr =  1.27E-03,  avg # of iterations =  1.1

     total cpu time spent up to now is      443.3 secs

     total energy              =   -2038.22212268 Ry
     estimated scf accuracy    <       1.46027003 Ry

     total magnetization       =    -0.00 Bohr mag/cell
     absolute magnetization    =     0.01 Bohr mag/cell

     iteration #  9     ecut=    90.00 Ry     beta= 0.20
     Davidson diagonalization with overlap
     ethr =  1.14E-03,  avg # of iterations =  1.0

     total cpu time spent up to now is      481.8 secs

     total energy              =   -2038.15674182 Ry
     estimated scf accuracy    <       1.21004074 Ry

     total magnetization       =    -0.00 Bohr mag/cell
     absolute magnetization    =     0.01 Bohr mag/cell

     iteration # 10     ecut=    90.00 Ry     beta= 0.20
     Davidson diagonalization with overlap
     ethr =  9.45E-04,  avg # of iterations =  1.0

     total cpu time spent up to now is      520.8 secs

     total energy              =   -2038.17918753 Ry
     estimated scf accuracy    <       0.13249963 Ry

     total magnetization       =    -0.00 Bohr mag/cell
     absolute magnetization    =     0.01 Bohr mag/cell

     iteration # 11     ecut=    90.00 Ry     beta= 0.20
     Davidson diagonalization with overlap
     ethr =  1.04E-04,  avg # of iterations =  1.2

     total cpu time spent up to now is      560.8 secs

     total energy              =   -2038.16573903 Ry
     estimated scf accuracy    <       0.14961753 Ry

     total magnetization       =    -0.00 Bohr mag/cell
     absolute magnetization    =     0.01 Bohr mag/cell

     iteration # 12     ecut=    90.00 Ry     beta= 0.20
     Davidson diagonalization with overlap
     ethr =  1.04E-04,  avg # of iterations =  1.5

     total cpu time spent up to now is      602.2 secs

     total energy              =   -2038.17385960 Ry
     estimated scf accuracy    <       0.00993418 Ry

     total magnetization       =    -0.00 Bohr mag/cell
     absolute magnetization    =     0.01 Bohr mag/cell

     iteration # 13     ecut=    90.00 Ry     beta= 0.20
     Davidson diagonalization with overlap
     ethr =  7.76E-06,  avg # of iterations =  3.6

     total cpu time spent up to now is      653.5 secs

     total energy              =   -2038.17438960 Ry
     estimated scf accuracy    <       0.00284908 Ry

     total magnetization       =    -0.00 Bohr mag/cell
     absolute magnetization    =     0.01 Bohr mag/cell

     iteration # 14     ecut=    90.00 Ry     beta= 0.20
     Davidson diagonalization with overlap
     ethr =  2.23E-06,  avg # of iterations =  1.3

     total cpu time spent up to now is      693.9 secs

     total energy              =   -2038.17445142 Ry
     estimated scf accuracy    <       0.00044692 Ry

     total magnetization       =    -0.00 Bohr mag/cell
     absolute magnetization    =     0.01 Bohr mag/cell

     iteration # 15     ecut=    90.00 Ry     beta= 0.20
     Davidson diagonalization with overlap
     ethr =  3.49E-07,  avg # of iterations =  1.8

     total cpu time spent up to now is      737.0 secs

     total energy              =   -2038.17441800 Ry
     estimated scf accuracy    <       0.00072715 Ry

     total magnetization       =    -0.00 Bohr mag/cell
     absolute magnetization    =     0.01 Bohr mag/cell

     iteration # 16     ecut=    90.00 Ry     beta= 0.20
     Davidson diagonalization with overlap
     ethr =  3.49E-07,  avg # of iterations =  1.1

     total cpu time spent up to now is      776.3 secs

     total energy              =   -2038.17438691 Ry
     estimated scf accuracy    <       0.00236077 Ry

     total magnetization       =    -0.00 Bohr mag/cell
     absolute magnetization    =     0.01 Bohr mag/cell

     iteration # 17     ecut=    90.00 Ry     beta= 0.20
     Davidson diagonalization with overlap
     ethr =  3.49E-07,  avg # of iterations =  1.0

     total cpu time spent up to now is      814.9 secs

     total energy              =   -2038.17440760 Ry
     estimated scf accuracy    <       0.00103923 Ry

     total magnetization       =    -0.00 Bohr mag/cell
     absolute magnetization    =     0.01 Bohr mag/cell

     iteration # 18     ecut=    90.00 Ry     beta= 0.20
     Davidson diagonalization with overlap
     ethr =  3.49E-07,  avg # of iterations =  1.0

     total cpu time spent up to now is      853.5 secs

     total energy              =   -2038.17441645 Ry
     estimated scf accuracy    <       0.00084326 Ry

     total magnetization       =    -0.00 Bohr mag/cell
     absolute magnetization    =     0.01 Bohr mag/cell

     iteration # 19     ecut=    90.00 Ry     beta= 0.20
     Davidson diagonalization with overlap
     ethr =  3.49E-07,  avg # of iterations =  1.0

     total cpu time spent up to now is      894.6 secs

     total energy              =   -2038.17442043 Ry
     estimated scf accuracy    <       0.00088924 Ry

     total magnetization       =    -0.00 Bohr mag/cell
     absolute magnetization    =     0.01 Bohr mag/cell

     iteration # 20     ecut=    90.00 Ry     beta= 0.20
     Davidson diagonalization with overlap
     ethr =  3.49E-07,  avg # of iterations =  1.0

     total cpu time spent up to now is      933.7 secs

     total energy              =   -2038.17443070 Ry
     estimated scf accuracy    <       0.00050920 Ry

     total magnetization       =    -0.00 Bohr mag/cell
     absolute magnetization    =     0.01 Bohr mag/cell

     iteration # 21     ecut=    90.00 Ry     beta= 0.20
     Davidson diagonalization with overlap
     ethr =  3.49E-07,  avg # of iterations =  1.0

     total cpu time spent up to now is      972.7 secs

     total energy              =   -2038.17444033 Ry
     estimated scf accuracy    <       0.00005382 Ry

     total magnetization       =    -0.00 Bohr mag/cell
     absolute magnetization    =     0.01 Bohr mag/cell

     iteration # 22     ecut=    90.00 Ry     beta= 0.20
     Davidson diagonalization with overlap
     ethr =  4.20E-08,  avg # of iterations =  1.0

     total cpu time spent up to now is     1011.8 secs

     total energy              =   -2038.17444010 Ry
     estimated scf accuracy    <       0.00002838 Ry

     total magnetization       =    -0.00 Bohr mag/cell
     absolute magnetization    =     0.01 Bohr mag/cell

     iteration # 23     ecut=    90.00 Ry     beta= 0.20
     Davidson diagonalization with overlap
     ethr =  2.22E-08,  avg # of iterations =  1.0

     total cpu time spent up to now is     1050.9 secs

     total energy              =   -2038.17444066 Ry
     estimated scf accuracy    <       0.00000652 Ry

     total magnetization       =    -0.00 Bohr mag/cell
     absolute magnetization    =     0.02 Bohr mag/cell

     iteration # 24     ecut=    90.00 Ry     beta= 0.20
     Davidson diagonalization with overlap
     ethr =  5.09E-09,  avg # of iterations =  1.0

     total cpu time spent up to now is     1090.0 secs

     total energy              =   -2038.17444077 Ry
     estimated scf accuracy    <       0.00001305 Ry

     total magnetization       =    -0.00 Bohr mag/cell
     absolute magnetization    =     0.02 Bohr mag/cell

     iteration # 25     ecut=    90.00 Ry     beta= 0.20
     Davidson diagonalization with overlap
     ethr =  5.09E-09,  avg # of iterations =  1.0

     total cpu time spent up to now is     1128.9 secs

     total energy              =   -2038.17444128 Ry
     estimated scf accuracy    <       0.00000280 Ry

     total magnetization       =    -0.00 Bohr mag/cell
     absolute magnetization    =     0.02 Bohr mag/cell

     iteration # 26     ecut=    90.00 Ry     beta= 0.20
     Davidson diagonalization with overlap
     ethr =  2.19E-09,  avg # of iterations =  1.0

     total cpu time spent up to now is     1168.2 secs

     total energy              =   -2038.17444135 Ry
     estimated scf accuracy    <       0.00000141 Ry

     total magnetization       =    -0.00 Bohr mag/cell
     absolute magnetization    =     0.03 Bohr mag/cell

     iteration # 27     ecut=    90.00 Ry     beta= 0.20
     Davidson diagonalization with overlap
     ethr =  1.10E-09,  avg # of iterations =  1.1

     total cpu time spent up to now is     1207.2 secs

     total energy              =   -2038.17444084 Ry
     estimated scf accuracy    <       0.00000275 Ry

     total magnetization       =    -0.00 Bohr mag/cell
     absolute magnetization    =     0.03 Bohr mag/cell

     iteration # 28     ecut=    90.00 Ry     beta= 0.20
     Davidson diagonalization with overlap
     ethr =  1.10E-09,  avg # of iterations =  1.0

     total cpu time spent up to now is     1246.5 secs

     total energy              =   -2038.17444096 Ry
     estimated scf accuracy    <       0.00000097 Ry

     total magnetization       =    -0.00 Bohr mag/cell
     absolute magnetization    =     0.02 Bohr mag/cell

     iteration # 29     ecut=    90.00 Ry     beta= 0.20
     Davidson diagonalization with overlap
     ethr =  7.54E-10,  avg # of iterations =  1.0

     total cpu time spent up to now is     1285.3 secs

     total energy              =   -2038.17444077 Ry
     estimated scf accuracy    <       0.00000351 Ry

     total magnetization       =    -0.00 Bohr mag/cell
     absolute magnetization    =     0.02 Bohr mag/cell

     iteration # 30     ecut=    90.00 Ry     beta= 0.20
     Davidson diagonalization with overlap
     ethr =  7.54E-10,  avg # of iterations =  1.3

     total cpu time spent up to now is     1325.9 secs

     total energy              =   -2038.17444036 Ry
     estimated scf accuracy    <       0.00001766 Ry

     total magnetization       =    -0.00 Bohr mag/cell
     absolute magnetization    =     0.02 Bohr mag/cell

     iteration # 31     ecut=    90.00 Ry     beta= 0.20
     Davidson diagonalization with overlap
     ethr =  7.54E-10,  avg # of iterations =  2.1

     total cpu time spent up to now is     1371.0 secs

     total energy              =   -2038.17444038 Ry
     estimated scf accuracy    <       0.00001133 Ry

     total magnetization       =    -0.00 Bohr mag/cell
     absolute magnetization    =     0.01 Bohr mag/cell

     iteration # 32     ecut=    90.00 Ry     beta= 0.20
     Davidson diagonalization with overlap
     ethr =  7.54E-10,  avg # of iterations =  1.2

     total cpu time spent up to now is     1411.0 secs

     total energy              =   -2038.17444053 Ry
     estimated scf accuracy    <       0.00000041 Ry

     total magnetization       =    -0.00 Bohr mag/cell
     absolute magnetization    =     0.01 Bohr mag/cell

     iteration # 33     ecut=    90.00 Ry     beta= 0.20
     Davidson diagonalization with overlap
     ethr =  3.22E-10,  avg # of iterations =  2.1

     total cpu time spent up to now is     1454.9 secs

     total energy              =   -2038.17444053 Ry
     estimated scf accuracy    <       0.00000052 Ry

     total magnetization       =     0.00 Bohr mag/cell
     absolute magnetization    =     0.01 Bohr mag/cell

     iteration # 34     ecut=    90.00 Ry     beta= 0.20
     Davidson diagonalization with overlap
     ethr =  3.22E-10,  avg # of iterations =  1.1

     total cpu time spent up to now is     1495.2 secs

     total energy              =   -2038.17444052 Ry
     estimated scf accuracy    <       0.00000073 Ry

     total magnetization       =     0.00 Bohr mag/cell
     absolute magnetization    =     0.01 Bohr mag/cell

     iteration # 35     ecut=    90.00 Ry     beta= 0.20
     Davidson diagonalization with overlap
     ethr =  3.22E-10,  avg # of iterations =  1.0

     total cpu time spent up to now is     1535.3 secs

     total energy              =   -2038.17444051 Ry
     estimated scf accuracy    <       0.00000086 Ry

     total magnetization       =     0.00 Bohr mag/cell
     absolute magnetization    =     0.01 Bohr mag/cell

     iteration # 36     ecut=    90.00 Ry     beta= 0.20
     Davidson diagonalization with overlap
     ethr =  3.22E-10,  avg # of iterations =  1.0

     total cpu time spent up to now is     1574.6 secs

     total energy              =   -2038.17444053 Ry
     estimated scf accuracy    <       0.00000036 Ry

     total magnetization       =     0.00 Bohr mag/cell
     absolute magnetization    =     0.00 Bohr mag/cell

     iteration # 37     ecut=    90.00 Ry     beta= 0.20
     Davidson diagonalization with overlap
     ethr =  2.83E-10,  avg # of iterations =  1.0

     total cpu time spent up to now is     1613.7 secs

     total energy              =   -2038.17444050 Ry
     estimated scf accuracy    <       0.00000123 Ry

     total magnetization       =     0.00 Bohr mag/cell
     absolute magnetization    =     0.00 Bohr mag/cell

     iteration # 38     ecut=    90.00 Ry     beta= 0.20
     Davidson diagonalization with overlap
     ethr =  2.83E-10,  avg # of iterations =  1.0

     total cpu time spent up to now is     1652.3 secs

     total energy              =   -2038.17444053 Ry
     estimated scf accuracy    <       0.00000007 Ry

     total magnetization       =     0.00 Bohr mag/cell
     absolute magnetization    =     0.00 Bohr mag/cell

     iteration # 39     ecut=    90.00 Ry     beta= 0.20
     Davidson diagonalization with overlap
     ethr =  5.24E-11,  avg # of iterations =  1.5

     total cpu time spent up to now is     1693.2 secs

     total energy              =   -2038.17444053 Ry
     estimated scf accuracy    <       0.00000024 Ry

     total magnetization       =     0.00 Bohr mag/cell
     absolute magnetization    =     0.00 Bohr mag/cell

     iteration # 40     ecut=    90.00 Ry     beta= 0.20
     Davidson diagonalization with overlap
     ethr =  5.24E-11,  avg # of iterations =  1.7

     total cpu time spent up to now is     1735.1 secs

     total energy              =   -2038.17444052 Ry
     estimated scf accuracy    <       0.00000147 Ry

     total magnetization       =     0.00 Bohr mag/cell
     absolute magnetization    =     0.01 Bohr mag/cell

     iteration # 41     ecut=    90.00 Ry     beta= 0.20
     Davidson diagonalization with overlap
     ethr =  5.24E-11,  avg # of iterations =  1.2

     total cpu time spent up to now is     1774.0 secs

     total energy              =   -2038.17444054 Ry
     estimated scf accuracy    <       0.00000013 Ry

     total magnetization       =     0.00 Bohr mag/cell
     absolute magnetization    =     0.01 Bohr mag/cell

     iteration # 42     ecut=    90.00 Ry     beta= 0.20
     Davidson diagonalization with overlap
     ethr =  5.24E-11,  avg # of iterations =  1.0

     total cpu time spent up to now is     1813.0 secs

     total energy              =   -2038.17444054 Ry
     estimated scf accuracy    <       0.00000006 Ry

     total magnetization       =     0.00 Bohr mag/cell
     absolute magnetization    =     0.01 Bohr mag/cell

     iteration # 43     ecut=    90.00 Ry     beta= 0.20
     Davidson diagonalization with overlap
     ethr =  4.31E-11,  avg # of iterations =  1.0

     total cpu time spent up to now is     1852.2 secs

     total energy              =   -2038.17444054 Ry
     estimated scf accuracy    <       0.00000003 Ry

     total magnetization       =     0.00 Bohr mag/cell
     absolute magnetization    =     0.01 Bohr mag/cell

     iteration # 44     ecut=    90.00 Ry     beta= 0.20
     Davidson diagonalization with overlap
     ethr =  2.48E-11,  avg # of iterations =  1.0

     total cpu time spent up to now is     1891.0 secs

     total energy              =   -2038.17444054 Ry
     estimated scf accuracy    <       0.00000004 Ry

     total magnetization       =     0.00 Bohr mag/cell
     absolute magnetization    =     0.01 Bohr mag/cell

     iteration # 45     ecut=    90.00 Ry     beta= 0.20
     Davidson diagonalization with overlap
     ethr =  2.48E-11,  avg # of iterations =  1.1

     total cpu time spent up to now is     1930.2 secs

     total energy              =   -2038.17444054 Ry
     estimated scf accuracy    <       0.00000003 Ry

     total magnetization       =     0.00 Bohr mag/cell
     absolute magnetization    =     0.01 Bohr mag/cell

     iteration # 46     ecut=    90.00 Ry     beta= 0.20
     Davidson diagonalization with overlap
     ethr =  2.48E-11,  avg # of iterations =  1.0

     total cpu time spent up to now is     1969.2 secs

     total energy              =   -2038.17444054 Ry
     estimated scf accuracy    <       0.00000003 Ry

     total magnetization       =     0.00 Bohr mag/cell
     absolute magnetization    =     0.01 Bohr mag/cell

     iteration # 47     ecut=    90.00 Ry     beta= 0.20
     Davidson diagonalization with overlap
     ethr =  2.40E-11,  avg # of iterations =  1.1

     total cpu time spent up to now is     2008.5 secs

     total energy              =   -2038.17444054 Ry
     estimated scf accuracy    <       0.00000012 Ry

     total magnetization       =     0.00 Bohr mag/cell
     absolute magnetization    =     0.01 Bohr mag/cell

     iteration # 48     ecut=    90.00 Ry     beta= 0.20
     Davidson diagonalization with overlap
     ethr =  2.40E-11,  avg # of iterations =  1.0

     total cpu time spent up to now is     2047.6 secs

     total energy              =   -2038.17444054 Ry
     estimated scf accuracy    <       0.00000003 Ry

     total magnetization       =     0.00 Bohr mag/cell
     absolute magnetization    =     0.01 Bohr mag/cell

     iteration # 49     ecut=    90.00 Ry     beta= 0.20
     Davidson diagonalization with overlap
     ethr =  2.30E-11,  avg # of iterations =  1.0

     total cpu time spent up to now is     2088.0 secs

     total energy              =   -2038.17444054 Ry
     estimated scf accuracy    <       0.00000004 Ry

     total magnetization       =     0.00 Bohr mag/cell
     absolute magnetization    =     0.01 Bohr mag/cell

     iteration # 50     ecut=    90.00 Ry     beta= 0.20
     Davidson diagonalization with overlap
     ethr =  2.30E-11,  avg # of iterations =  1.0

     total cpu time spent up to now is     2127.1 secs

     total energy              =   -2038.17444054 Ry
     estimated scf accuracy    <       0.00000018 Ry

     total magnetization       =     0.00 Bohr mag/cell
     absolute magnetization    =     0.01 Bohr mag/cell

     iteration # 51     ecut=    90.00 Ry     beta= 0.20
     Davidson diagonalization with overlap
     ethr =  2.30E-11,  avg # of iterations =  1.0

     total cpu time spent up to now is     2165.5 secs

     total energy              =   -2038.17444053 Ry
     estimated scf accuracy    <       0.00000012 Ry

     total magnetization       =     0.00 Bohr mag/cell
     absolute magnetization    =     0.01 Bohr mag/cell

     iteration # 52     ecut=    90.00 Ry     beta= 0.20
     Davidson diagonalization with overlap
     ethr =  2.30E-11,  avg # of iterations =  1.3

     total cpu time spent up to now is     2206.4 secs

     total energy              =   -2038.17444054 Ry
     estimated scf accuracy    <       0.00000016 Ry

     total magnetization       =     0.00 Bohr mag/cell
     absolute magnetization    =     0.01 Bohr mag/cell

     iteration # 53     ecut=    90.00 Ry     beta= 0.20
     Davidson diagonalization with overlap
     ethr =  2.30E-11,  avg # of iterations =  1.0

     total cpu time spent up to now is     2244.8 secs

     total energy              =   -2038.17444054 Ry
     estimated scf accuracy    <       0.00000003 Ry

     total magnetization       =     0.00 Bohr mag/cell
     absolute magnetization    =     0.01 Bohr mag/cell

     iteration # 54     ecut=    90.00 Ry     beta= 0.20
     Davidson diagonalization with overlap
     ethr =  2.30E-11,  avg # of iterations =  1.0

     total cpu time spent up to now is     2283.2 secs

     total energy              =   -2038.17444054 Ry
     estimated scf accuracy    <       0.00000004 Ry

     total magnetization       =     0.00 Bohr mag/cell
     absolute magnetization    =     0.01 Bohr mag/cell

     iteration # 55     ecut=    90.00 Ry     beta= 0.20
     Davidson diagonalization with overlap
     ethr =  2.30E-11,  avg # of iterations =  1.0

     total cpu time spent up to now is     2321.8 secs

     total energy              =   -2038.17444054 Ry
     estimated scf accuracy    <       0.00000005 Ry

     total magnetization       =     0.00 Bohr mag/cell
     absolute magnetization    =     0.01 Bohr mag/cell

     iteration # 56     ecut=    90.00 Ry     beta= 0.20
     Davidson diagonalization with overlap
     ethr =  2.30E-11,  avg # of iterations =  1.0

     total cpu time spent up to now is     2360.5 secs

     total energy              =   -2038.17444053 Ry
     estimated scf accuracy    <       0.00000005 Ry

     total magnetization       =     0.00 Bohr mag/cell
     absolute magnetization    =     0.01 Bohr mag/cell

     iteration # 57     ecut=    90.00 Ry     beta= 0.20
     Davidson diagonalization with overlap
     ethr =  2.30E-11,  avg # of iterations =  1.0

     total cpu time spent up to now is     2399.0 secs

     total energy              =   -2038.17444053 Ry
     estimated scf accuracy    <       0.00000004 Ry

     total magnetization       =     0.00 Bohr mag/cell
     absolute magnetization    =     0.01 Bohr mag/cell

     iteration # 58     ecut=    90.00 Ry     beta= 0.20
     Davidson diagonalization with overlap
     ethr =  2.30E-11,  avg # of iterations =  1.5

     total cpu time spent up to now is     2440.0 secs

     total energy              =   -2038.17444053 Ry
     estimated scf accuracy    <       0.00000019 Ry

     total magnetization       =     0.00 Bohr mag/cell
     absolute magnetization    =     0.01 Bohr mag/cell

     iteration # 59     ecut=    90.00 Ry     beta= 0.20
     Davidson diagonalization with overlap
     ethr =  2.30E-11,  avg # of iterations =  1.1

     total cpu time spent up to now is     2478.7 secs

     total energy              =   -2038.17444053 Ry
     estimated scf accuracy    <       0.00000013 Ry

     total magnetization       =     0.00 Bohr mag/cell
     absolute magnetization    =     0.00 Bohr mag/cell

     iteration # 60     ecut=    90.00 Ry     beta= 0.20
     Davidson diagonalization with overlap
     ethr =  2.30E-11,  avg # of iterations =  1.0

     total cpu time spent up to now is     2517.0 secs

     total energy              =   -2038.17444053 Ry
     estimated scf accuracy    <       0.00000015 Ry

     total magnetization       =     0.00 Bohr mag/cell
     absolute magnetization    =     0.00 Bohr mag/cell

     iteration # 61     ecut=    90.00 Ry     beta= 0.20
     Davidson diagonalization with overlap
     ethr =  2.30E-11,  avg # of iterations =  1.1

     total cpu time spent up to now is     2556.2 secs

     total energy              =   -2038.17444053 Ry
     estimated scf accuracy    <       0.00000023 Ry

     total magnetization       =     0.00 Bohr mag/cell
     absolute magnetization    =     0.01 Bohr mag/cell

     iteration # 62     ecut=    90.00 Ry     beta= 0.20
     Davidson diagonalization with overlap
     ethr =  2.30E-11,  avg # of iterations =  1.0

     total cpu time spent up to now is     2595.0 secs

     total energy              =   -2038.17444053 Ry
     estimated scf accuracy    <       0.00000008 Ry

     total magnetization       =     0.00 Bohr mag/cell
     absolute magnetization    =     0.00 Bohr mag/cell

     iteration # 63     ecut=    90.00 Ry     beta= 0.20
     Davidson diagonalization with overlap
     ethr =  2.30E-11,  avg # of iterations =  1.0

     total cpu time spent up to now is     2633.8 secs

     total energy              =   -2038.17444053 Ry
     estimated scf accuracy    <       0.00000003 Ry

     total magnetization       =     0.00 Bohr mag/cell
     absolute magnetization    =     0.00 Bohr mag/cell

     iteration # 64     ecut=    90.00 Ry     beta= 0.20
     Davidson diagonalization with overlap
     ethr =  2.30E-11,  avg # of iterations =  1.0

     total cpu time spent up to now is     2672.6 secs

     total energy              =   -2038.17444053 Ry
     estimated scf accuracy    <       0.00000004 Ry

     total magnetization       =     0.00 Bohr mag/cell
     absolute magnetization    =     0.00 Bohr mag/cell

     iteration # 65     ecut=    90.00 Ry     beta= 0.20
     Davidson diagonalization with overlap
     ethr =  2.30E-11,  avg # of iterations =  1.0

     total cpu time spent up to now is     2713.8 secs

     total energy              =   -2038.17444053 Ry
     estimated scf accuracy    <       0.00000002 Ry

     total magnetization       =     0.00 Bohr mag/cell
     absolute magnetization    =     0.00 Bohr mag/cell

     iteration # 66     ecut=    90.00 Ry     beta= 0.20
     Davidson diagonalization with overlap
     ethr =  1.33E-11,  avg # of iterations =  1.2

     total cpu time spent up to now is     2752.7 secs

     total energy              =   -2038.17444054 Ry
     estimated scf accuracy    <       0.00000001 Ry

     total magnetization       =     0.00 Bohr mag/cell
     absolute magnetization    =     0.00 Bohr mag/cell

     iteration # 67     ecut=    90.00 Ry     beta= 0.20
     Davidson diagonalization with overlap
     ethr =  1.11E-11,  avg # of iterations =  1.0

     total cpu time spent up to now is     2790.9 secs

     total energy              =   -2038.17444053 Ry
     estimated scf accuracy    <       0.00000002 Ry

     total magnetization       =     0.00 Bohr mag/cell
     absolute magnetization    =     0.01 Bohr mag/cell

     iteration # 68     ecut=    90.00 Ry     beta= 0.20
     Davidson diagonalization with overlap
     ethr =  1.11E-11,  avg # of iterations =  1.0

     total cpu time spent up to now is     2829.6 secs

     total energy              =   -2038.17444053 Ry
     estimated scf accuracy    <       0.00000003 Ry

     total magnetization       =     0.00 Bohr mag/cell
     absolute magnetization    =     0.00 Bohr mag/cell

     iteration # 69     ecut=    90.00 Ry     beta= 0.20
     Davidson diagonalization with overlap
     ethr =  1.11E-11,  avg # of iterations =  1.0

     total cpu time spent up to now is     2867.8 secs

     total energy              =   -2038.17444053 Ry
     estimated scf accuracy    <       0.00000004 Ry

     total magnetization       =     0.00 Bohr mag/cell
     absolute magnetization    =     0.00 Bohr mag/cell

     iteration # 70     ecut=    90.00 Ry     beta= 0.20
     Davidson diagonalization with overlap
     ethr =  1.11E-11,  avg # of iterations =  1.7

     total cpu time spent up to now is     2909.7 secs

     total energy              =   -2038.17444053 Ry
     estimated scf accuracy    <       0.00000030 Ry

     total magnetization       =     0.00 Bohr mag/cell
     absolute magnetization    =     0.00 Bohr mag/cell

     iteration # 71     ecut=    90.00 Ry     beta= 0.20
     Davidson diagonalization with overlap
     ethr =  1.11E-11,  avg # of iterations =  1.3

     total cpu time spent up to now is     2949.5 secs

     total energy              =   -2038.17444053 Ry
     estimated scf accuracy    <       0.00000011 Ry

     total magnetization       =     0.00 Bohr mag/cell
     absolute magnetization    =     0.00 Bohr mag/cell

     iteration # 72     ecut=    90.00 Ry     beta= 0.20
     Davidson diagonalization with overlap
     ethr =  1.11E-11,  avg # of iterations =  1.0

     total cpu time spent up to now is     2987.8 secs

     total energy              =   -2038.17444053 Ry
     estimated scf accuracy    <       0.00000003 Ry

     total magnetization       =     0.00 Bohr mag/cell
     absolute magnetization    =     0.00 Bohr mag/cell

     iteration # 73     ecut=    90.00 Ry     beta= 0.20
     Davidson diagonalization with overlap
     ethr =  1.11E-11,  avg # of iterations =  1.0

     total cpu time spent up to now is     3026.9 secs

     total energy              =   -2038.17444053 Ry
     estimated scf accuracy    <       0.00000004 Ry

     total magnetization       =     0.00 Bohr mag/cell
     absolute magnetization    =     0.01 Bohr mag/cell

     iteration # 74     ecut=    90.00 Ry     beta= 0.20
     Davidson diagonalization with overlap
     ethr =  1.11E-11,  avg # of iterations =  1.0

     total cpu time spent up to now is     3065.6 secs

     total energy              =   -2038.17444053 Ry
     estimated scf accuracy    <       0.00000003 Ry

     total magnetization       =     0.00 Bohr mag/cell
     absolute magnetization    =     0.01 Bohr mag/cell

     iteration # 75     ecut=    90.00 Ry     beta= 0.20
     Davidson diagonalization with overlap
     ethr =  1.11E-11,  avg # of iterations =  1.0

     total cpu time spent up to now is     3104.4 secs

     total energy              =   -2038.17444053 Ry
     estimated scf accuracy    <       0.00000001 Ry

     total magnetization       =     0.00 Bohr mag/cell
     absolute magnetization    =     0.01 Bohr mag/cell

     iteration # 76     ecut=    90.00 Ry     beta= 0.20
     Davidson diagonalization with overlap
     ethr =  1.11E-11,  avg # of iterations =  1.0

     total cpu time spent up to now is     3143.4 secs

     total energy              =   -2038.17444054 Ry
     estimated scf accuracy    <       0.00000001 Ry

     total magnetization       =     0.00 Bohr mag/cell
     absolute magnetization    =     0.01 Bohr mag/cell

     iteration # 77     ecut=    90.00 Ry     beta= 0.20
     Davidson diagonalization with overlap
     ethr =  9.04E-12,  avg # of iterations =  1.0

     total cpu time spent up to now is     3182.3 secs

     total energy              =   -2038.17444053 Ry
     estimated scf accuracy    <       0.00000001 Ry

     total magnetization       =     0.00 Bohr mag/cell
     absolute magnetization    =     0.01 Bohr mag/cell

     iteration # 78     ecut=    90.00 Ry     beta= 0.20
     Davidson diagonalization with overlap
     ethr =  9.04E-12,  avg # of iterations =  1.0

     total cpu time spent up to now is     3221.2 secs

     total energy              =   -2038.17444054 Ry
     estimated scf accuracy    <       0.00000002 Ry

     total magnetization       =     0.00 Bohr mag/cell
     absolute magnetization    =     0.01 Bohr mag/cell

     iteration # 79     ecut=    90.00 Ry     beta= 0.20
     Davidson diagonalization with overlap
     ethr =  9.04E-12,  avg # of iterations =  1.0

     total cpu time spent up to now is     3260.4 secs

     total energy              =   -2038.17444054 Ry
     estimated scf accuracy    <       0.00000002 Ry

     total magnetization       =     0.00 Bohr mag/cell
     absolute magnetization    =     0.01 Bohr mag/cell

     iteration # 80     ecut=    90.00 Ry     beta= 0.20
     Davidson diagonalization with overlap
     ethr =  9.04E-12,  avg # of iterations =  1.0

     total cpu time spent up to now is     3301.0 secs

     total energy              =   -2038.17444054 Ry
     estimated scf accuracy    <       0.00000002 Ry

     total magnetization       =     0.00 Bohr mag/cell
     absolute magnetization    =     0.01 Bohr mag/cell

     iteration # 81     ecut=    90.00 Ry     beta= 0.20
     Davidson diagonalization with overlap
     ethr =  9.04E-12,  avg # of iterations =  1.0

     total cpu time spent up to now is     3339.8 secs

     total energy              =   -2038.17444054 Ry
     estimated scf accuracy    <       0.00000001 Ry

     total magnetization       =     0.00 Bohr mag/cell
     absolute magnetization    =     0.01 Bohr mag/cell

     iteration # 82     ecut=    90.00 Ry     beta= 0.20
     Davidson diagonalization with overlap
     ethr =  9.04E-12,  avg # of iterations =  1.0

     total cpu time spent up to now is     3378.6 secs

     total energy              =   -2038.17444054 Ry
     estimated scf accuracy    <       0.00000002 Ry

     total magnetization       =     0.00 Bohr mag/cell
     absolute magnetization    =     0.01 Bohr mag/cell

     iteration # 83     ecut=    90.00 Ry     beta= 0.20
     Davidson diagonalization with overlap
     ethr =  9.04E-12,  avg # of iterations =  1.0

     total cpu time spent up to now is     3417.4 secs

     total energy              =   -2038.17444053 Ry
     estimated scf accuracy    <       0.00000005 Ry

     total magnetization       =     0.00 Bohr mag/cell
     absolute magnetization    =     0.01 Bohr mag/cell

     iteration # 84     ecut=    90.00 Ry     beta= 0.20
     Davidson diagonalization with overlap
     ethr =  9.04E-12,  avg # of iterations =  1.0

     total cpu time spent up to now is     3456.2 secs

     total energy              =   -2038.17444053 Ry
     estimated scf accuracy    <       0.00000004 Ry

     total magnetization       =     0.00 Bohr mag/cell
     absolute magnetization    =     0.00 Bohr mag/cell

     iteration # 85     ecut=    90.00 Ry     beta= 0.20
     Davidson diagonalization with overlap
     ethr =  9.04E-12,  avg # of iterations =  1.1

     total cpu time spent up to now is     3495.4 secs

     total energy              =   -2038.17444053 Ry
     estimated scf accuracy    <       0.00000003 Ry

     total magnetization       =     0.00 Bohr mag/cell
     absolute magnetization    =     0.00 Bohr mag/cell

     iteration # 86     ecut=    90.00 Ry     beta= 0.20
     Davidson diagonalization with overlap
     ethr =  9.04E-12,  avg # of iterations =  1.1

     total cpu time spent up to now is     3534.7 secs

     total energy              =   -2038.17444054 Ry
     estimated scf accuracy    <       0.00000003 Ry

     total magnetization       =     0.00 Bohr mag/cell
     absolute magnetization    =     0.01 Bohr mag/cell

     iteration # 87     ecut=    90.00 Ry     beta= 0.20
     Davidson diagonalization with overlap
     ethr =  9.04E-12,  avg # of iterations =  1.0

     total cpu time spent up to now is     3573.9 secs

     total energy              =   -2038.17444054 Ry
     estimated scf accuracy    <       0.00000002 Ry

     total magnetization       =     0.00 Bohr mag/cell
     absolute magnetization    =     0.01 Bohr mag/cell

     iteration # 88     ecut=    90.00 Ry     beta= 0.20
     Davidson diagonalization with overlap
     ethr =  9.04E-12,  avg # of iterations =  1.0

     total cpu time spent up to now is     3612.8 secs

     total energy              =   -2038.17444054 Ry
     estimated scf accuracy    <       0.00000002 Ry

     total magnetization       =     0.00 Bohr mag/cell
     absolute magnetization    =     0.01 Bohr mag/cell

     iteration # 89     ecut=    90.00 Ry     beta= 0.20
     Davidson diagonalization with overlap
     ethr =  9.04E-12,  avg # of iterations =  1.0

     total cpu time spent up to now is     3651.5 secs

     total energy              =   -2038.17444054 Ry
     estimated scf accuracy    <       0.00000002 Ry

     total magnetization       =     0.00 Bohr mag/cell
     absolute magnetization    =     0.01 Bohr mag/cell

     iteration # 90     ecut=    90.00 Ry     beta= 0.20
     Davidson diagonalization with overlap
     ethr =  9.04E-12,  avg # of iterations =  1.0

     total cpu time spent up to now is     3690.4 secs

     total energy              =   -2038.17444053 Ry
     estimated scf accuracy    <       0.00000007 Ry

     total magnetization       =     0.00 Bohr mag/cell
     absolute magnetization    =     0.01 Bohr mag/cell

     iteration # 91     ecut=    90.00 Ry     beta= 0.20
     Davidson diagonalization with overlap
     ethr =  9.04E-12,  avg # of iterations =  1.1

     total cpu time spent up to now is     3729.3 secs

     total energy              =   -2038.17444053 Ry
     estimated scf accuracy    <       0.00000011 Ry

     total magnetization       =     0.00 Bohr mag/cell
     absolute magnetization    =     0.01 Bohr mag/cell

     iteration # 92     ecut=    90.00 Ry     beta= 0.20
     Davidson diagonalization with overlap
     ethr =  9.04E-12,  avg # of iterations =  1.0

     total cpu time spent up to now is     3768.3 secs

     total energy              =   -2038.17444054 Ry
     estimated scf accuracy    <       0.00000003 Ry

     total magnetization       =     0.00 Bohr mag/cell
     absolute magnetization    =     0.01 Bohr mag/cell

     iteration # 93     ecut=    90.00 Ry     beta= 0.20
     Davidson diagonalization with overlap
     ethr =  9.04E-12,  avg # of iterations =  1.0

     total cpu time spent up to now is     3807.2 secs

     total energy              =   -2038.17444054 Ry
     estimated scf accuracy    <       0.00000004 Ry

     total magnetization       =     0.00 Bohr mag/cell
     absolute magnetization    =     0.01 Bohr mag/cell

     iteration # 94     ecut=    90.00 Ry     beta= 0.20
     Davidson diagonalization with overlap
     ethr =  9.04E-12,  avg # of iterations =  1.0

     total cpu time spent up to now is     3846.1 secs

     total energy              =   -2038.17444054 Ry
     estimated scf accuracy    <       0.00000003 Ry

     total magnetization       =     0.00 Bohr mag/cell
     absolute magnetization    =     0.01 Bohr mag/cell

     iteration # 95     ecut=    90.00 Ry     beta= 0.20
     Davidson diagonalization with overlap
     ethr =  9.04E-12,  avg # of iterations =  1.0

     total cpu time spent up to now is     3885.1 secs

     total energy              =   -2038.17444053 Ry
     estimated scf accuracy    <       0.00000002 Ry

     total magnetization       =     0.00 Bohr mag/cell
     absolute magnetization    =     0.01 Bohr mag/cell

     iteration # 96     ecut=    90.00 Ry     beta= 0.20
     Davidson diagonalization with overlap
     ethr =  9.04E-12,  avg # of iterations =  1.7

     total cpu time spent up to now is     3929.3 secs

     total energy              =   -2038.17444053 Ry
     estimated scf accuracy    <       0.00000007 Ry

     total magnetization       =     0.00 Bohr mag/cell
     absolute magnetization    =     0.01 Bohr mag/cell

     iteration # 97     ecut=    90.00 Ry     beta= 0.20
     Davidson diagonalization with overlap
     ethr =  9.04E-12,  avg # of iterations =  2.2

     total cpu time spent up to now is     3974.3 secs

     total energy              =   -2038.17444054 Ry
     estimated scf accuracy    <       0.00000003 Ry

     total magnetization       =     0.00 Bohr mag/cell
     absolute magnetization    =     0.01 Bohr mag/cell

     iteration # 98     ecut=    90.00 Ry     beta= 0.20
     Davidson diagonalization with overlap
     ethr =  9.04E-12,  avg # of iterations =  1.0

     total cpu time spent up to now is     4013.3 secs

     total energy              =   -2038.17444054 Ry
     estimated scf accuracy    <       0.00000003 Ry

     total magnetization       =     0.00 Bohr mag/cell
     absolute magnetization    =     0.01 Bohr mag/cell

     iteration # 99     ecut=    90.00 Ry     beta= 0.20
     Davidson diagonalization with overlap
     ethr =  9.04E-12,  avg # of iterations =  1.0

     total cpu time spent up to now is     4052.3 secs

     total energy              =   -2038.17444054 Ry
     estimated scf accuracy    <       0.00000003 Ry

     total magnetization       =     0.00 Bohr mag/cell
     absolute magnetization    =     0.01 Bohr mag/cell

     iteration #100     ecut=    90.00 Ry     beta= 0.20
     Davidson diagonalization with overlap
     ethr =  9.04E-12,  avg # of iterations =  1.0

     total cpu time spent up to now is     4090.9 secs

     total energy              =   -2038.17444053 Ry
     estimated scf accuracy    <       0.00000003 Ry

     total magnetization       =     0.00 Bohr mag/cell
     absolute magnetization    =     0.01 Bohr mag/cell

     iteration #101     ecut=    90.00 Ry     beta= 0.20
     Davidson diagonalization with overlap
     ethr =  9.04E-12,  avg # of iterations =  1.8

     total cpu time spent up to now is     4133.9 secs

     total energy              =   -2038.17444053 Ry
     estimated scf accuracy    <       0.00000002 Ry

     total magnetization       =     0.00 Bohr mag/cell
     absolute magnetization    =     0.01 Bohr mag/cell

     iteration #102     ecut=    90.00 Ry     beta= 0.20
     Davidson diagonalization with overlap
     ethr =  9.04E-12,  avg # of iterations =  1.1

     total cpu time spent up to now is     4173.0 secs

     total energy              =   -2038.17444054 Ry
     estimated scf accuracy    <       0.00000002 Ry

     total magnetization       =     0.00 Bohr mag/cell
     absolute magnetization    =     0.01 Bohr mag/cell

     iteration #103     ecut=    90.00 Ry     beta= 0.20
     Davidson diagonalization with overlap
     ethr =  9.04E-12,  avg # of iterations =  1.0

     total cpu time spent up to now is     4211.8 secs

     total energy              =   -2038.17444054 Ry
     estimated scf accuracy    <       0.00000001 Ry

     total magnetization       =     0.00 Bohr mag/cell
     absolute magnetization    =     0.01 Bohr mag/cell

     iteration #104     ecut=    90.00 Ry     beta= 0.20
     Davidson diagonalization with overlap
     ethr =  8.37E-12,  avg # of iterations =  1.0

     total cpu time spent up to now is     4250.5 secs

     total energy              =   -2038.17444054 Ry
     estimated scf accuracy    <       0.00000001 Ry

     total magnetization       =     0.00 Bohr mag/cell
     absolute magnetization    =     0.01 Bohr mag/cell

     iteration #105     ecut=    90.00 Ry     beta= 0.20
     Davidson diagonalization with overlap
     ethr =  8.37E-12,  avg # of iterations =  1.0

     Magnetic moment per site:
     atom:    1    charge:   12.8763    magn:   -0.0001    constr:    0.0000
     atom:    2    charge:   15.2065    magn:    0.0004    constr:    0.0000
     atom:    3    charge:   12.8763    magn:    0.0003    constr:    0.0000
     atom:    4    charge:   15.2065    magn:   -0.0011    constr:    0.0000
     atom:    5    charge:   12.8765    magn:    0.0006    constr:    0.0000
     atom:    6    charge:   15.2065    magn:    0.0009    constr:    0.0000
     atom:    7    charge:   12.8765    magn:    0.0004    constr:    0.0000
     atom:    8    charge:   15.2065    magn:    0.0001    constr:    0.0000

     total cpu time spent up to now is     4289.5 secs

     End of self-consistent calculation

     Number of k-points >= 100: set verbosity='high' to print the bands.

     the Fermi energy is    17.3810 ev

!    total energy              =   -2038.17444054 Ry
     estimated scf accuracy    <          9.7E-09 Ry
     smearing contrib. (-TS)   =      -0.01725896 Ry
     internal energy E=F+TS    =   -2038.15718158 Ry

     The total energy is F=E-TS. E is the sum of the following terms:
     one-electron contribution =   -1052.33199171 Ry
     hartree contribution      =     598.71484966 Ry
     xc contribution           =    -236.51760837 Ry
     ewald contribution        =   -1348.02243116 Ry

     total magnetization       =     0.00 Bohr mag/cell
     absolute magnetization    =     0.01 Bohr mag/cell

     convergence has been achieved in 105 iterations

     Forces acting on atoms (cartesian axes, Ry/au):

     atom    1 type  1   force =     0.00136772   -0.00061587   -0.00107268
     atom    2 type  2   force =     0.00096119    0.00034302    0.00059003
     atom    3 type  1   force =     0.00136759   -0.00061587   -0.00107264
     atom    4 type  2   force =     0.00096134    0.00034310    0.00059017
     atom    5 type  1   force =    -0.00081095    0.00036177    0.00060923
     atom    6 type  2   force =    -0.00151765   -0.00008905   -0.00012670
     atom    7 type  1   force =    -0.00081109    0.00036184    0.00060930
     atom    8 type  2   force =    -0.00151813   -0.00008894   -0.00012671

     Total force =     0.004069     Total SCF correction =     0.000006


     Computing stress (Cartesian axis) and pressure

          total   stress  (Ry/bohr**3)                   (kbar)     P=       -0.96
  -0.00000714  -0.00000028  -0.00000903           -1.05       -0.04       -1.33
  -0.00000028  -0.00000618  -0.00000030           -0.04       -0.91       -0.04
  -0.00000903  -0.00000030  -0.00000628           -1.33       -0.04       -0.92

     Energy error            =      3.4E-06
     Gradient error          =      1.5E-03

     number of scf cycles    =   3
     number of bfgs steps    =   2

     energy   old            =   -2038.1744371626 Ry
     energy   new            =   -2038.1744405397 Ry

     CASE: energy  _new < energy  _old


     WARNING: bfgs curvature condition failed, Theta= 0.779
     new trust radius        =       0.0128466115 bohr
     new conv_thr            =            1.0E-10 Ry


ATOMIC_POSITIONS (angstrom)
Mn            0.0087638698        2.2808617048       -0.0148634322
Co            2.2838227338       -0.0052839304        2.2728170201
Mn           -0.0026684503       -0.0056383236        2.2716358188
Co            2.2952549925        2.2812162497       -0.0136820696
Mn            2.2760165452        0.0067376140        0.0105750527
Co           -0.0027445049        2.2810530209        2.2723184401
Mn            2.2645849218        2.2932378041        2.2970763151
Co            0.0086889317       -0.0054469657       -0.0141802734



     Writing output data file ./pwscf.save/
     NEW-OLD atomic charge density approx. for the potential

     Check: negative core charge=   -0.000017
     Generating pointlists ...

     total cpu time spent up to now is     4317.5 secs

     Self-consistent Calculation

     iteration #  1     ecut=    90.00 Ry     beta= 0.20
     Davidson diagonalization with overlap
     ethr =  1.00E-06,  avg # of iterations =  6.0

     total cpu time spent up to now is     4426.5 secs

     total energy              =   -2038.17449093 Ry
     estimated scf accuracy    <       0.00013586 Ry

     total magnetization       =     0.00 Bohr mag/cell
     absolute magnetization    =     0.01 Bohr mag/cell

     iteration #  2     ecut=    90.00 Ry     beta= 0.20
     Davidson diagonalization with overlap
     ethr =  1.06E-07,  avg # of iterations =  3.0

     total cpu time spent up to now is     4476.8 secs

     total energy              =   -2038.17445499 Ry
     estimated scf accuracy    <       0.00263314 Ry

     total magnetization       =     0.00 Bohr mag/cell
     absolute magnetization    =     0.01 Bohr mag/cell

     iteration #  3     ecut=    90.00 Ry     beta= 0.20
     Davidson diagonalization with overlap
     ethr =  1.06E-07,  avg # of iterations =  1.5

     total cpu time spent up to now is     4519.3 secs

     total energy              =   -2038.17449691 Ry
     estimated scf accuracy    <       0.00010084 Ry

     total magnetization       =     0.00 Bohr mag/cell
     absolute magnetization    =     0.01 Bohr mag/cell

     iteration #  4     ecut=    90.00 Ry     beta= 0.20
     Davidson diagonalization with overlap
     ethr =  7.88E-08,  avg # of iterations =  1.8

     total cpu time spent up to now is     4562.6 secs

     total energy              =   -2038.17448944 Ry
     estimated scf accuracy    <       0.00044530 Ry

     total magnetization       =     0.01 Bohr mag/cell
     absolute magnetization    =     0.01 Bohr mag/cell

     iteration #  5     ecut=    90.00 Ry     beta= 0.20
     Davidson diagonalization with overlap
     ethr =  7.88E-08,  avg # of iterations =  1.0

     total cpu time spent up to now is     4601.6 secs

     total energy              =   -2038.17450232 Ry
     estimated scf accuracy    <       0.00001822 Ry

     total magnetization       =     0.01 Bohr mag/cell
     absolute magnetization    =     0.01 Bohr mag/cell

     iteration #  6     ecut=    90.00 Ry     beta= 0.20
     Davidson diagonalization with overlap
     ethr =  1.42E-08,  avg # of iterations =  1.4

     total cpu time spent up to now is     4641.9 secs

     total energy              =   -2038.17450242 Ry
     estimated scf accuracy    <       0.00008950 Ry

     total magnetization       =     0.01 Bohr mag/cell
     absolute magnetization    =     0.01 Bohr mag/cell

     iteration #  7     ecut=    90.00 Ry     beta= 0.20
     Davidson diagonalization with overlap
     ethr =  1.42E-08,  avg # of iterations =  1.0

     total cpu time spent up to now is     4680.7 secs

     total energy              =   -2038.17450376 Ry
     estimated scf accuracy    <       0.00001896 Ry

     total magnetization       =     0.01 Bohr mag/cell
     absolute magnetization    =     0.01 Bohr mag/cell

     iteration #  8     ecut=    90.00 Ry     beta= 0.20
     Davidson diagonalization with overlap
     ethr =  1.42E-08,  avg # of iterations =  1.0

     total cpu time spent up to now is     4719.5 secs

     total energy              =   -2038.17450460 Ry
     estimated scf accuracy    <       0.00000234 Ry

     total magnetization       =     0.01 Bohr mag/cell
     absolute magnetization    =     0.01 Bohr mag/cell

     iteration #  9     ecut=    90.00 Ry     beta= 0.20
     Davidson diagonalization with overlap
     ethr =  1.82E-09,  avg # of iterations =  1.2

     total cpu time spent up to now is     4759.4 secs

     total energy              =   -2038.17450474 Ry
     estimated scf accuracy    <       0.00000524 Ry

     total magnetization       =     0.01 Bohr mag/cell
     absolute magnetization    =     0.02 Bohr mag/cell

     iteration # 10     ecut=    90.00 Ry     beta= 0.20
     Davidson diagonalization with overlap
     ethr =  1.82E-09,  avg # of iterations =  1.0

     total cpu time spent up to now is     4798.3 secs

     total energy              =   -2038.17450492 Ry
     estimated scf accuracy    <       0.00000150 Ry

     total magnetization       =     0.02 Bohr mag/cell
     absolute magnetization    =     0.02 Bohr mag/cell

     iteration # 11     ecut=    90.00 Ry     beta= 0.20
     Davidson diagonalization with overlap
     ethr =  1.17E-09,  avg # of iterations =  1.0

     total cpu time spent up to now is     4837.3 secs

     total energy              =   -2038.17450509 Ry
     estimated scf accuracy    <       0.00000123 Ry

     total magnetization       =     0.02 Bohr mag/cell
     absolute magnetization    =     0.02 Bohr mag/cell

     iteration # 12     ecut=    90.00 Ry     beta= 0.20
     Davidson diagonalization with overlap
     ethr =  9.61E-10,  avg # of iterations =  1.0

     total cpu time spent up to now is     4876.2 secs

     total energy              =   -2038.17450482 Ry
     estimated scf accuracy    <       0.00000088 Ry

     total magnetization       =     0.02 Bohr mag/cell
     absolute magnetization    =     0.02 Bohr mag/cell

     iteration # 13     ecut=    90.00 Ry     beta= 0.20
     Davidson diagonalization with overlap
     ethr =  6.86E-10,  avg # of iterations =  1.0

     total cpu time spent up to now is     4915.1 secs

     total energy              =   -2038.17450488 Ry
     estimated scf accuracy    <       0.00000099 Ry

     total magnetization       =     0.01 Bohr mag/cell
     absolute magnetization    =     0.02 Bohr mag/cell

     iteration # 14     ecut=    90.00 Ry     beta= 0.20
     Davidson diagonalization with overlap
     ethr =  6.86E-10,  avg # of iterations =  1.0

     total cpu time spent up to now is     4954.0 secs

     total energy              =   -2038.17450445 Ry
     estimated scf accuracy    <       0.00000506 Ry

     total magnetization       =     0.01 Bohr mag/cell
     absolute magnetization    =     0.02 Bohr mag/cell

     iteration # 15     ecut=    90.00 Ry     beta= 0.20
     Davidson diagonalization with overlap
     ethr =  6.86E-10,  avg # of iterations =  1.0

     total cpu time spent up to now is     4993.0 secs

     total energy              =   -2038.17450465 Ry
     estimated scf accuracy    <       0.00000035 Ry

     total magnetization       =     0.01 Bohr mag/cell
     absolute magnetization    =     0.01 Bohr mag/cell

     iteration # 16     ecut=    90.00 Ry     beta= 0.20
     Davidson diagonalization with overlap
     ethr =  2.70E-10,  avg # of iterations =  2.2

     total cpu time spent up to now is     5038.7 secs

     total energy              =   -2038.17450454 Ry
     estimated scf accuracy    <       0.00000822 Ry

     total magnetization       =     0.00 Bohr mag/cell
     absolute magnetization    =     0.01 Bohr mag/cell

     iteration # 17     ecut=    90.00 Ry     beta= 0.20
     Davidson diagonalization with overlap
     ethr =  2.70E-10,  avg # of iterations =  1.3

     total cpu time spent up to now is     5080.0 secs

     total energy              =   -2038.17450469 Ry
     estimated scf accuracy    <       0.00000026 Ry

     total magnetization       =    -0.00 Bohr mag/cell
     absolute magnetization    =     0.01 Bohr mag/cell

     iteration # 18     ecut=    90.00 Ry     beta= 0.20
     Davidson diagonalization with overlap
     ethr =  2.01E-10,  avg # of iterations =  1.0

     total cpu time spent up to now is     5120.4 secs

     total energy              =   -2038.17450470 Ry
     estimated scf accuracy    <       0.00000014 Ry

     total magnetization       =    -0.00 Bohr mag/cell
     absolute magnetization    =     0.01 Bohr mag/cell

     iteration # 19     ecut=    90.00 Ry     beta= 0.20
     Davidson diagonalization with overlap
     ethr =  1.12E-10,  avg # of iterations =  1.1

     total cpu time spent up to now is     5160.0 secs

     total energy              =   -2038.17450471 Ry
     estimated scf accuracy    <       0.00000021 Ry

     total magnetization       =    -0.00 Bohr mag/cell
     absolute magnetization    =     0.01 Bohr mag/cell

     iteration # 20     ecut=    90.00 Ry     beta= 0.20
     Davidson diagonalization with overlap
     ethr =  1.12E-10,  avg # of iterations =  1.0

     total cpu time spent up to now is     5198.9 secs

     total energy              =   -2038.17450471 Ry
     estimated scf accuracy    <       0.00000007 Ry

     total magnetization       =    -0.00 Bohr mag/cell
     absolute magnetization    =     0.01 Bohr mag/cell

     iteration # 21     ecut=    90.00 Ry     beta= 0.20
     Davidson diagonalization with overlap
     ethr =  5.59E-11,  avg # of iterations =  1.0

     total cpu time spent up to now is     5237.9 secs

     total energy              =   -2038.17450472 Ry
     estimated scf accuracy    <       0.00000004 Ry

     total magnetization       =    -0.00 Bohr mag/cell
     absolute magnetization    =     0.01 Bohr mag/cell

     iteration # 22     ecut=    90.00 Ry     beta= 0.20
     Davidson diagonalization with overlap
     ethr =  3.04E-11,  avg # of iterations =  1.0

     total cpu time spent up to now is     5276.8 secs

     total energy              =   -2038.17450472 Ry
     estimated scf accuracy    <       0.00000004 Ry

     total magnetization       =    -0.00 Bohr mag/cell
     absolute magnetization    =     0.01 Bohr mag/cell

     iteration # 23     ecut=    90.00 Ry     beta= 0.20
     Davidson diagonalization with overlap
     ethr =  3.04E-11,  avg # of iterations =  1.0

     total cpu time spent up to now is     5315.8 secs

     total energy              =   -2038.17450472 Ry
     estimated scf accuracy    <       0.00000005 Ry

     total magnetization       =    -0.00 Bohr mag/cell
     absolute magnetization    =     0.01 Bohr mag/cell

     iteration # 24     ecut=    90.00 Ry     beta= 0.20
     Davidson diagonalization with overlap
     ethr =  3.04E-11,  avg # of iterations =  1.0

     total cpu time spent up to now is     5355.0 secs

     total energy              =   -2038.17450472 Ry
     estimated scf accuracy    <       0.00000004 Ry

     total magnetization       =    -0.00 Bohr mag/cell
     absolute magnetization    =     0.01 Bohr mag/cell

     iteration # 25     ecut=    90.00 Ry     beta= 0.20
     Davidson diagonalization with overlap
     ethr =  3.04E-11,  avg # of iterations =  1.0

     total cpu time spent up to now is     5393.9 secs

     total energy              =   -2038.17450472 Ry
     estimated scf accuracy    <       0.00000005 Ry

     total magnetization       =    -0.00 Bohr mag/cell
     absolute magnetization    =     0.01 Bohr mag/cell

     iteration # 26     ecut=    90.00 Ry     beta= 0.20
     Davidson diagonalization with overlap
     ethr =  3.04E-11,  avg # of iterations =  1.0

     total cpu time spent up to now is     5432.8 secs

     total energy              =   -2038.17450472 Ry
     estimated scf accuracy    <       0.00000018 Ry

     total magnetization       =    -0.00 Bohr mag/cell
     absolute magnetization    =     0.01 Bohr mag/cell

     iteration # 27     ecut=    90.00 Ry     beta= 0.20
     Davidson diagonalization with overlap
     ethr =  3.04E-11,  avg # of iterations =  1.0

     total cpu time spent up to now is     5471.9 secs

     total energy              =   -2038.17450472 Ry
     estimated scf accuracy    <       0.00000006 Ry

     total magnetization       =    -0.00 Bohr mag/cell
     absolute magnetization    =     0.01 Bohr mag/cell

     iteration # 28     ecut=    90.00 Ry     beta= 0.20
     Davidson diagonalization with overlap
     ethr =  3.04E-11,  avg # of iterations =  1.0

     total cpu time spent up to now is     5510.8 secs

     total energy              =   -2038.17450471 Ry
     estimated scf accuracy    <       0.00000006 Ry

     total magnetization       =    -0.00 Bohr mag/cell
     absolute magnetization    =     0.01 Bohr mag/cell

     iteration # 29     ecut=    90.00 Ry     beta= 0.20
     Davidson diagonalization with overlap
     ethr =  3.04E-11,  avg # of iterations =  1.0

     total cpu time spent up to now is     5549.9 secs

     total energy              =   -2038.17450471 Ry
     estimated scf accuracy    <       0.00000005 Ry

     total magnetization       =    -0.00 Bohr mag/cell
     absolute magnetization    =     0.01 Bohr mag/cell

     iteration # 30     ecut=    90.00 Ry     beta= 0.20
     Davidson diagonalization with overlap
     ethr =  3.04E-11,  avg # of iterations =  1.0

     total cpu time spent up to now is     5588.8 secs

     total energy              =   -2038.17450470 Ry
     estimated scf accuracy    <       0.00000007 Ry

     total magnetization       =    -0.00 Bohr mag/cell
     absolute magnetization    =     0.01 Bohr mag/cell

     iteration # 31     ecut=    90.00 Ry     beta= 0.20
     Davidson diagonalization with overlap
     ethr =  3.04E-11,  avg # of iterations =  1.0

     total cpu time spent up to now is     5627.9 secs

     total energy              =   -2038.17450470 Ry
     estimated scf accuracy    <       0.00000006 Ry

     total magnetization       =    -0.00 Bohr mag/cell
     absolute magnetization    =     0.01 Bohr mag/cell

     iteration # 32     ecut=    90.00 Ry     beta= 0.20
     Davidson diagonalization with overlap
     ethr =  3.04E-11,  avg # of iterations =  1.0

     total cpu time spent up to now is     5667.0 secs

     total energy              =   -2038.17450469 Ry
     estimated scf accuracy    <       0.00000006 Ry

     total magnetization       =    -0.00 Bohr mag/cell
     absolute magnetization    =     0.01 Bohr mag/cell

     iteration # 33     ecut=    90.00 Ry     beta= 0.20
     Davidson diagonalization with overlap
     ethr =  3.04E-11,  avg # of iterations =  1.3

     total cpu time spent up to now is     5707.6 secs

     total energy              =   -2038.17450469 Ry
     estimated scf accuracy    <       0.00000003 Ry

     total magnetization       =    -0.00 Bohr mag/cell
     absolute magnetization    =     0.01 Bohr mag/cell

     iteration # 34     ecut=    90.00 Ry     beta= 0.20
     Davidson diagonalization with overlap
     ethr =  2.06E-11,  avg # of iterations =  1.2

     total cpu time spent up to now is     5749.0 secs

     total energy              =   -2038.17450468 Ry
     estimated scf accuracy    <       0.00000017 Ry

     total magnetization       =    -0.00 Bohr mag/cell
     absolute magnetization    =     0.01 Bohr mag/cell

     iteration # 35     ecut=    90.00 Ry     beta= 0.20
     Davidson diagonalization with overlap
     ethr =  2.06E-11,  avg # of iterations =  1.5

     total cpu time spent up to now is     5791.4 secs

     total energy              =   -2038.17450469 Ry
     estimated scf accuracy    <       0.00000013 Ry

     total magnetization       =    -0.00 Bohr mag/cell
     absolute magnetization    =     0.01 Bohr mag/cell

     iteration # 36     ecut=    90.00 Ry     beta= 0.20
     Davidson diagonalization with overlap
     ethr =  2.06E-11,  avg # of iterations =  1.0

     total cpu time spent up to now is     5830.3 secs

     total energy              =   -2038.17450470 Ry
     estimated scf accuracy    <       0.00000002 Ry

     total magnetization       =    -0.00 Bohr mag/cell
     absolute magnetization    =     0.01 Bohr mag/cell

     iteration # 37     ecut=    90.00 Ry     beta= 0.20
     Davidson diagonalization with overlap
     ethr =  1.38E-11,  avg # of iterations =  1.1

     total cpu time spent up to now is     5869.7 secs

     total energy              =   -2038.17450470 Ry
     estimated scf accuracy    <       0.00000002 Ry

     total magnetization       =    -0.00 Bohr mag/cell
     absolute magnetization    =     0.01 Bohr mag/cell

     iteration # 38     ecut=    90.00 Ry     beta= 0.20
     Davidson diagonalization with overlap
     ethr =  1.38E-11,  avg # of iterations =  1.0

     total cpu time spent up to now is     5908.5 secs

     total energy              =   -2038.17450470 Ry
     estimated scf accuracy    <       0.00000001 Ry

     total magnetization       =    -0.00 Bohr mag/cell
     absolute magnetization    =     0.01 Bohr mag/cell

     iteration # 39     ecut=    90.00 Ry     beta= 0.20
     Davidson diagonalization with overlap
     ethr =  9.62E-12,  avg # of iterations =  1.0

     total cpu time spent up to now is     5947.3 secs

     total energy              =   -2038.17450470 Ry
     estimated scf accuracy    <       0.00000001 Ry

     total magnetization       =    -0.00 Bohr mag/cell
     absolute magnetization    =     0.01 Bohr mag/cell

     iteration # 40     ecut=    90.00 Ry     beta= 0.20
     Davidson diagonalization with overlap
     ethr =  9.62E-12,  avg # of iterations =  1.0

     total cpu time spent up to now is     5986.2 secs

     total energy              =   -2038.17450470 Ry
     estimated scf accuracy    <       0.00000001 Ry

     total magnetization       =    -0.00 Bohr mag/cell
     absolute magnetization    =     0.01 Bohr mag/cell

     iteration # 41     ecut=    90.00 Ry     beta= 0.20
     Davidson diagonalization with overlap
     ethr =  9.62E-12,  avg # of iterations =  1.0

     total cpu time spent up to now is     6024.7 secs

     total energy              =   -2038.17450470 Ry
     estimated scf accuracy    <       0.00000001 Ry

     total magnetization       =    -0.00 Bohr mag/cell
     absolute magnetization    =     0.01 Bohr mag/cell

     iteration # 42     ecut=    90.00 Ry     beta= 0.20
     Davidson diagonalization with overlap
     ethr =  9.62E-12,  avg # of iterations =  1.0

     total cpu time spent up to now is     6063.8 secs

     total energy              =   -2038.17450470 Ry
     estimated scf accuracy    <       0.00000001 Ry

     total magnetization       =    -0.00 Bohr mag/cell
     absolute magnetization    =     0.01 Bohr mag/cell

     iteration # 43     ecut=    90.00 Ry     beta= 0.20
     Davidson diagonalization with overlap
     ethr =  9.62E-12,  avg # of iterations =  1.0

     total cpu time spent up to now is     6102.2 secs

     total energy              =   -2038.17450470 Ry
     estimated scf accuracy    <          9.7E-09 Ry

     total magnetization       =    -0.00 Bohr mag/cell
     absolute magnetization    =     0.01 Bohr mag/cell

     iteration # 44     ecut=    90.00 Ry     beta= 0.20
     Davidson diagonalization with overlap
     ethr =  7.61E-12,  avg # of iterations =  1.2

     total cpu time spent up to now is     6141.7 secs

     total energy              =   -2038.17450470 Ry
     estimated scf accuracy    <       0.00000009 Ry

     total magnetization       =    -0.00 Bohr mag/cell
     absolute magnetization    =     0.01 Bohr mag/cell

     iteration # 45     ecut=    90.00 Ry     beta= 0.20
     Davidson diagonalization with overlap
     ethr =  7.61E-12,  avg # of iterations =  1.0

     total cpu time spent up to now is     6180.4 secs

     total energy              =   -2038.17450470 Ry
     estimated scf accuracy    <       0.00000003 Ry

     total magnetization       =    -0.00 Bohr mag/cell
     absolute magnetization    =     0.01 Bohr mag/cell

     iteration # 46     ecut=    90.00 Ry     beta= 0.20
     Davidson diagonalization with overlap
     ethr =  7.61E-12,  avg # of iterations =  1.0

     total cpu time spent up to now is     6219.2 secs

     total energy              =   -2038.17450470 Ry
     estimated scf accuracy    <       0.00000001 Ry

     total magnetization       =    -0.00 Bohr mag/cell
     absolute magnetization    =     0.01 Bohr mag/cell

     iteration # 47     ecut=    90.00 Ry     beta= 0.20
     Davidson diagonalization with overlap
     ethr =  7.61E-12,  avg # of iterations =  1.0

     total cpu time spent up to now is     6258.3 secs

     total energy              =   -2038.17450470 Ry
     estimated scf accuracy    <       0.00000001 Ry

     total magnetization       =    -0.00 Bohr mag/cell
     absolute magnetization    =     0.01 Bohr mag/cell

     iteration # 48     ecut=    90.00 Ry     beta= 0.20
     Davidson diagonalization with overlap
     ethr =  7.61E-12,  avg # of iterations =  1.0

     total cpu time spent up to now is     6297.1 secs

     total energy              =   -2038.17450470 Ry
     estimated scf accuracy    <       0.00000001 Ry

     total magnetization       =    -0.00 Bohr mag/cell
     absolute magnetization    =     0.01 Bohr mag/cell

     iteration # 49     ecut=    90.00 Ry     beta= 0.20
     Davidson diagonalization with overlap
     ethr =  7.61E-12,  avg # of iterations =  1.0

     total cpu time spent up to now is     6338.1 secs

     total energy              =   -2038.17450470 Ry
     estimated scf accuracy    <       0.00000002 Ry

     total magnetization       =    -0.00 Bohr mag/cell
     absolute magnetization    =     0.01 Bohr mag/cell

     iteration # 50     ecut=    90.00 Ry     beta= 0.20
     Davidson diagonalization with overlap
     ethr =  7.61E-12,  avg # of iterations =  1.0

     total cpu time spent up to now is     6377.0 secs

     total energy              =   -2038.17450470 Ry
     estimated scf accuracy    <       0.00000002 Ry

     total magnetization       =    -0.00 Bohr mag/cell
     absolute magnetization    =     0.01 Bohr mag/cell

     iteration # 51     ecut=    90.00 Ry     beta= 0.20
     Davidson diagonalization with overlap
     ethr =  7.61E-12,  avg # of iterations =  1.0

     total cpu time spent up to now is     6415.7 secs

     total energy              =   -2038.17450469 Ry
     estimated scf accuracy    <       0.00000002 Ry

     total magnetization       =    -0.00 Bohr mag/cell
     absolute magnetization    =     0.01 Bohr mag/cell

     iteration # 52     ecut=    90.00 Ry     beta= 0.20
     Davidson diagonalization with overlap
     ethr =  7.61E-12,  avg # of iterations =  1.0

     total cpu time spent up to now is     6454.7 secs

     total energy              =   -2038.17450470 Ry
     estimated scf accuracy    <       0.00000001 Ry

     total magnetization       =    -0.00 Bohr mag/cell
     absolute magnetization    =     0.01 Bohr mag/cell

     iteration # 53     ecut=    90.00 Ry     beta= 0.20
     Davidson diagonalization with overlap
     ethr =  7.61E-12,  avg # of iterations =  1.0

     total cpu time spent up to now is     6493.3 secs

     total energy              =   -2038.17450470 Ry
     estimated scf accuracy    <          6.7E-09 Ry

     total magnetization       =    -0.00 Bohr mag/cell
     absolute magnetization    =     0.01 Bohr mag/cell

     iteration # 54     ecut=    90.00 Ry     beta= 0.20
     Davidson diagonalization with overlap
     ethr =  5.23E-12,  avg # of iterations =  1.0

     total cpu time spent up to now is     6531.7 secs

     total energy              =   -2038.17450470 Ry
     estimated scf accuracy    <          6.3E-09 Ry

     total magnetization       =    -0.00 Bohr mag/cell
     absolute magnetization    =     0.01 Bohr mag/cell

     iteration # 55     ecut=    90.00 Ry     beta= 0.20
     Davidson diagonalization with overlap
     ethr =  4.91E-12,  avg # of iterations =  1.0

     total cpu time spent up to now is     6570.0 secs

     total energy              =   -2038.17450470 Ry
     estimated scf accuracy    <          7.8E-09 Ry

     total magnetization       =    -0.00 Bohr mag/cell
     absolute magnetization    =     0.01 Bohr mag/cell

     iteration # 56     ecut=    90.00 Ry     beta= 0.20
     Davidson diagonalization with overlap
     ethr =  4.91E-12,  avg # of iterations =  1.0

     total cpu time spent up to now is     6608.2 secs

     total energy              =   -2038.17450470 Ry
     estimated scf accuracy    <          8.1E-09 Ry

     total magnetization       =    -0.00 Bohr mag/cell
     absolute magnetization    =     0.01 Bohr mag/cell

     iteration # 57     ecut=    90.00 Ry     beta= 0.20
     Davidson diagonalization with overlap
     ethr =  4.91E-12,  avg # of iterations =  1.0

     total cpu time spent up to now is     6647.0 secs

     total energy              =   -2038.17450470 Ry
     estimated scf accuracy    <          9.8E-09 Ry

     total magnetization       =    -0.00 Bohr mag/cell
     absolute magnetization    =     0.01 Bohr mag/cell

     iteration # 58     ecut=    90.00 Ry     beta= 0.20
     Davidson diagonalization with overlap
     ethr =  4.91E-12,  avg # of iterations =  1.0

     total cpu time spent up to now is     6685.8 secs

     total energy              =   -2038.17450470 Ry
     estimated scf accuracy    <          7.8E-09 Ry

     total magnetization       =    -0.00 Bohr mag/cell
     absolute magnetization    =     0.01 Bohr mag/cell

     iteration # 59     ecut=    90.00 Ry     beta= 0.20
     Davidson diagonalization with overlap
     ethr =  4.91E-12,  avg # of iterations =  1.0

     total cpu time spent up to now is     6724.2 secs

     total energy              =   -2038.17450470 Ry
     estimated scf accuracy    <          7.0E-09 Ry

[...]

     total energy              =   -2038.17458869 Ry
     estimated scf accuracy    <          1.1E-09 Ry

     total magnetization       =    -0.00 Bohr mag/cell
     absolute magnetization    =     0.00 Bohr mag/cell

     iteration # 73     ecut=    90.00 Ry     beta= 0.20
     Davidson diagonalization with overlap
     ethr =  4.76E-13,  avg # of iterations =  1.0

     total cpu time spent up to now is    20879.2 secs

     total energy              =   -2038.17458869 Ry
     estimated scf accuracy    <          3.1E-09 Ry

     total magnetization       =    -0.00 Bohr mag/cell
     absolute magnetization    =     0.00 Bohr mag/cell

     iteration # 74     ecut=    90.00 Ry     beta= 0.20
     Davidson diagonalization with overlap
     ethr =  4.76E-13,  avg # of iterations =  1.0

     total cpu time spent up to now is    20917.3 secs

     total energy              =   -2038.17458869 Ry
     estimated scf accuracy    <          4.6E-10 Ry

     total magnetization       =    -0.00 Bohr mag/cell
     absolute magnetization    =     0.00 Bohr mag/cell

     iteration # 75     ecut=    90.00 Ry     beta= 0.20
     Davidson diagonalization with overlap
     ethr =  3.58E-13,  avg # of iterations =  1.0

     total cpu time spent up to now is    20955.6 secs

     total energy              =   -2038.17458869 Ry
     estimated scf accuracy    <          1.3E-09 Ry

     total magnetization       =    -0.00 Bohr mag/cell
     absolute magnetization    =     0.00 Bohr mag/cell

     iteration # 76     ecut=    90.00 Ry     beta= 0.20
     Davidson diagonalization with overlap
     ethr =  3.58E-13,  avg # of iterations =  1.0

     total cpu time spent up to now is    20993.7 secs

     total energy              =   -2038.17458869 Ry
     estimated scf accuracy    <          6.4E-10 Ry

     total magnetization       =    -0.00 Bohr mag/cell
     absolute magnetization    =     0.00 Bohr mag/cell

     iteration # 77     ecut=    90.00 Ry     beta= 0.20
     Davidson diagonalization with overlap
     ethr =  3.58E-13,  avg # of iterations =  1.1

     total cpu time spent up to now is    21032.7 secs

     total energy              =   -2038.17458869 Ry
     estimated scf accuracy    <          1.7E-09 Ry

     total magnetization       =    -0.00 Bohr mag/cell
     absolute magnetization    =     0.00 Bohr mag/cell

     iteration # 78     ecut=    90.00 Ry     beta= 0.20
     Davidson diagonalization with overlap
     ethr =  3.58E-13,  avg # of iterations =  1.0

     total cpu time spent up to now is    21070.9 secs

     total energy              =   -2038.17458869 Ry
     estimated scf accuracy    <          2.0E-09 Ry

     total magnetization       =     0.00 Bohr mag/cell
     absolute magnetization    =     0.00 Bohr mag/cell

     iteration # 79     ecut=    90.00 Ry     beta= 0.20
     Davidson diagonalization with overlap
     ethr =  3.58E-13,  avg # of iterations =  1.0

     total cpu time spent up to now is    21109.4 secs

     total energy              =   -2038.17458869 Ry
     estimated scf accuracy    <          1.0E-09 Ry

     total magnetization       =     0.00 Bohr mag/cell
     absolute magnetization    =     0.00 Bohr mag/cell

     iteration # 80     ecut=    90.00 Ry     beta= 0.20
     Davidson diagonalization with overlap
     ethr =  3.58E-13,  avg # of iterations =  1.0

     total cpu time spent up to now is    21147.5 secs

     total energy              =   -2038.17458869 Ry
     estimated scf accuracy    <          1.1E-09 Ry

     total magnetization       =     0.00 Bohr mag/cell
     absolute magnetization    =     0.00 Bohr mag/cell

     iteration # 81     ecut=    90.00 Ry     beta= 0.20
     Davidson diagonalization with overlap
     ethr =  3.58E-13,  avg # of iterations =  1.0

     total cpu time spent up to now is    21185.8 secs

     total energy              =   -2038.17458869 Ry
     estimated scf accuracy    <          9.5E-10 Ry

     total magnetization       =     0.00 Bohr mag/cell
     absolute magnetization    =     0.00 Bohr mag/cell

     iteration # 82     ecut=    90.00 Ry     beta= 0.20
     Davidson diagonalization with overlap
     ethr =  3.58E-13,  avg # of iterations =  1.0

     total cpu time spent up to now is    21224.0 secs

     total energy              =   -2038.17458869 Ry
     estimated scf accuracy    <          4.6E-10 Ry

     total magnetization       =     0.00 Bohr mag/cell
     absolute magnetization    =     0.00 Bohr mag/cell

     iteration # 83     ecut=    90.00 Ry     beta= 0.20
     Davidson diagonalization with overlap
     ethr =  3.56E-13,  avg # of iterations =  1.0

     total cpu time spent up to now is    21262.2 secs

     total energy              =   -2038.17458869 Ry
     estimated scf accuracy    <          4.0E-10 Ry

     total magnetization       =     0.00 Bohr mag/cell
     absolute magnetization    =     0.00 Bohr mag/cell

     iteration # 84     ecut=    90.00 Ry     beta= 0.20
     Davidson diagonalization with overlap
     ethr =  3.11E-13,  avg # of iterations =  1.0

     total cpu time spent up to now is    21301.7 secs

     total energy              =   -2038.17458869 Ry
     estimated scf accuracy    <          4.3E-10 Ry

     total magnetization       =     0.00 Bohr mag/cell
     absolute magnetization    =     0.00 Bohr mag/cell

     iteration # 85     ecut=    90.00 Ry     beta= 0.20
     Davidson diagonalization with overlap
     ethr =  3.11E-13,  avg # of iterations =  1.0

     total cpu time spent up to now is    21341.6 secs

     total energy              =   -2038.17458869 Ry
     estimated scf accuracy    <          9.5E-10 Ry

     total magnetization       =     0.00 Bohr mag/cell
     absolute magnetization    =     0.00 Bohr mag/cell

     iteration # 86     ecut=    90.00 Ry     beta= 0.20
     Davidson diagonalization with overlap
     ethr =  3.11E-13,  avg # of iterations =  2.1

     Magnetic moment per site:
     atom:    1    charge:   12.8764    magn:    0.0001    constr:    0.0000
     atom:    2    charge:   15.2069    magn:    0.0001    constr:    0.0000
     atom:    3    charge:   12.8763    magn:    0.0001    constr:    0.0000
     atom:    4    charge:   15.2069    magn:   -0.0000    constr:    0.0000
     atom:    5    charge:   12.8770    magn:    0.0000    constr:    0.0000
     atom:    6    charge:   15.2066    magn:   -0.0001    constr:    0.0000
     atom:    7    charge:   12.8770    magn:    0.0000    constr:    0.0000
     atom:    8    charge:   15.2066    magn:    0.0001    constr:    0.0000

     total cpu time spent up to now is    21386.3 secs

     End of self-consistent calculation

     Number of k-points >= 100: set verbosity='high' to print the bands.

     the Fermi energy is    17.3804 ev

!    total energy              =   -2038.17458869 Ry
     estimated scf accuracy    <          3.4E-10 Ry
     smearing contrib. (-TS)   =      -0.01719861 Ry
     internal energy E=F+TS    =   -2038.15739009 Ry

     The total energy is F=E-TS. E is the sum of the following terms:
     one-electron contribution =   -1052.44197578 Ry
     hartree contribution      =     598.76751768 Ry
     xc contribution           =    -236.51814642 Ry
     ewald contribution        =   -1347.96478557 Ry

     total magnetization       =     0.00 Bohr mag/cell
     absolute magnetization    =     0.00 Bohr mag/cell

     convergence has been achieved in  86 iterations

     Forces acting on atoms (cartesian axes, Ry/au):

     atom    1 type  1   force =     0.00202985   -0.00114733   -0.00252439
     atom    2 type  2   force =     0.00142582    0.00064329    0.00139000
     atom    3 type  1   force =     0.00202973   -0.00114708   -0.00252403
     atom    4 type  2   force =     0.00142574    0.00064319    0.00139041
     atom    5 type  1   force =    -0.00130345    0.00071715    0.00159420
     atom    6 type  2   force =    -0.00215176   -0.00021320   -0.00046037
     atom    7 type  1   force =    -0.00130349    0.00071719    0.00159465
     atom    8 type  2   force =    -0.00215243   -0.00021320   -0.00046046

     Total force =     0.007188     Total SCF correction =     0.000023


     Computing stress (Cartesian axis) and pressure

          total   stress  (Ry/bohr**3)                   (kbar)     P=       -0.63
  -0.00000446  -0.00000087  -0.00001041           -0.66       -0.13       -1.53
  -0.00000087  -0.00000387  -0.00000114           -0.13       -0.57       -0.17
  -0.00001041  -0.00000114  -0.00000448           -1.53       -0.17       -0.66

     Energy error            =      1.4E-04
     Gradient error          =      2.5E-03

     number of scf cycles    =   2
     number of bfgs steps    =   1

     energy   old            =   -2038.1744483702 Ry
     energy   new            =   -2038.1745886909 Ry

     CASE: energy  _new < energy  _old


     WARNING: bfgs curvature condition failed, Theta= 0.775
     new trust radius        =       0.0243486196 bohr
     new conv_thr            =       0.0000000014 Ry


ATOMIC_POSITIONS (angstrom)
Mn            0.0144535640        2.2767340526       -0.0307836468
Co            2.2891174769       -0.0071904806        2.2628952244
Mn            0.0030213278       -0.0097656889        2.2557155153
Co            2.3005474714        2.2793102278       -0.0236020243
Mn            2.2727775933        0.0135063639        0.0248477784
Co           -0.0000386476        2.2781101926        2.2597806902
Mn            2.2613481083        2.3000070470        2.3113526266
Co            0.0114008173       -0.0083897894       -0.0267168477



     Writing output data file ./pwscf.save/
     NEW-OLD atomic charge density approx. for the potential

     Check: negative core charge=   -0.000017
     Generating pointlists ...
     new r_m :   0.2019 (alat units)  1.7447 (a.u.) for type    1
     new r_m :   0.2019 (alat units)  1.7447 (a.u.) for type    2

     total cpu time spent up to now is    21413.4 secs

     Self-consistent Calculation

     iteration #  1     ecut=    90.00 Ry     beta= 0.20
     Davidson diagonalization with overlap
     ethr =  1.00E-06,  avg # of iterations =  7.2

     total cpu time spent up to now is    21536.5 secs

     total energy              =   -2038.17484229 Ry
     estimated scf accuracy    <       0.00039402 Ry

     total magnetization       =     0.00 Bohr mag/cell
     absolute magnetization    =     0.00 Bohr mag/cell

     iteration #  2     ecut=    90.00 Ry     beta= 0.20
     Davidson diagonalization with overlap
     ethr =  3.08E-07,  avg # of iterations =  2.2

     total cpu time spent up to now is    21582.0 secs

     total energy              =   -2038.17475886 Ry
     estimated scf accuracy    <       0.00508368 Ry

     total magnetization       =     0.00 Bohr mag/cell
     absolute magnetization    =     0.00 Bohr mag/cell

     iteration #  3     ecut=    90.00 Ry     beta= 0.20
     Davidson diagonalization with overlap
     ethr =  3.08E-07,  avg # of iterations =  1.1

     total cpu time spent up to now is    21621.2 secs

     total energy              =   -2038.17483508 Ry
     estimated scf accuracy    <       0.00039748 Ry

     total magnetization       =     0.00 Bohr mag/cell
     absolute magnetization    =     0.00 Bohr mag/cell

     iteration #  4     ecut=    90.00 Ry     beta= 0.20
     Davidson diagonalization with overlap
     ethr =  3.08E-07,  avg # of iterations =  1.3

     total cpu time spent up to now is    21661.4 secs

     total energy              =   -2038.17481894 Ry
     estimated scf accuracy    <       0.00120875 Ry

     total magnetization       =     0.00 Bohr mag/cell
     absolute magnetization    =     0.00 Bohr mag/cell

     iteration #  5     ecut=    90.00 Ry     beta= 0.20
     Davidson diagonalization with overlap
     ethr =  3.08E-07,  avg # of iterations =  1.0

     total cpu time spent up to now is    21699.6 secs

     total energy              =   -2038.17485657 Ry
     estimated scf accuracy    <       0.00001913 Ry

     total magnetization       =     0.00 Bohr mag/cell
     absolute magnetization    =     0.00 Bohr mag/cell

     iteration #  6     ecut=    90.00 Ry     beta= 0.20
     Davidson diagonalization with overlap
     ethr =  1.49E-08,  avg # of iterations =  2.3

     total cpu time spent up to now is    21748.5 secs

     total energy              =   -2038.17485055 Ry
     estimated scf accuracy    <       0.00051829 Ry

     total magnetization       =     0.00 Bohr mag/cell
     absolute magnetization    =     0.00 Bohr mag/cell

     iteration #  7     ecut=    90.00 Ry     beta= 0.20
     Davidson diagonalization with overlap
     ethr =  1.49E-08,  avg # of iterations =  1.4

     total cpu time spent up to now is    21788.6 secs

     total energy              =   -2038.17485970 Ry
     estimated scf accuracy    <       0.00003347 Ry

     total magnetization       =     0.00 Bohr mag/cell
     absolute magnetization    =     0.00 Bohr mag/cell

     iteration #  8     ecut=    90.00 Ry     beta= 0.20
     Davidson diagonalization with overlap
     ethr =  1.49E-08,  avg # of iterations =  1.0

     total cpu time spent up to now is    21826.9 secs

     total energy              =   -2038.17486094 Ry
     estimated scf accuracy    <       0.00000547 Ry

     total magnetization       =     0.00 Bohr mag/cell
     absolute magnetization    =     0.00 Bohr mag/cell

     iteration #  9     ecut=    90.00 Ry     beta= 0.20
     Davidson diagonalization with overlap
     ethr =  4.28E-09,  avg # of iterations =  1.6

     total cpu time spent up to now is    21868.6 secs

     total energy              =   -2038.17486103 Ry
     estimated scf accuracy    <       0.00002721 Ry

     total magnetization       =     0.00 Bohr mag/cell
     absolute magnetization    =     0.00 Bohr mag/cell

     iteration # 10     ecut=    90.00 Ry     beta= 0.20
     Davidson diagonalization with overlap
     ethr =  4.28E-09,  avg # of iterations =  1.0

     total cpu time spent up to now is    21907.2 secs

     total energy              =   -2038.17486169 Ry
     estimated scf accuracy    <       0.00000342 Ry

     total magnetization       =     0.00 Bohr mag/cell
     absolute magnetization    =     0.00 Bohr mag/cell

     iteration # 11     ecut=    90.00 Ry     beta= 0.20
     Davidson diagonalization with overlap
     ethr =  2.67E-09,  avg # of iterations =  1.0

     total cpu time spent up to now is    21947.9 secs

     total energy              =   -2038.17486171 Ry
     estimated scf accuracy    <       0.00000809 Ry

     total magnetization       =     0.00 Bohr mag/cell
     absolute magnetization    =     0.00 Bohr mag/cell

     iteration # 12     ecut=    90.00 Ry     beta= 0.20
     Davidson diagonalization with overlap
     ethr =  2.67E-09,  avg # of iterations =  1.0

     total cpu time spent up to now is    21986.8 secs

     total energy              =   -2038.17486198 Ry
     estimated scf accuracy    <       0.00000407 Ry

     total magnetization       =     0.00 Bohr mag/cell
     absolute magnetization    =     0.00 Bohr mag/cell

     iteration # 13     ecut=    90.00 Ry     beta= 0.20
     Davidson diagonalization with overlap
     ethr =  2.67E-09,  avg # of iterations =  1.0

     total cpu time spent up to now is    22025.6 secs

     total energy              =   -2038.17486213 Ry
     estimated scf accuracy    <       0.00000010 Ry

     total magnetization       =     0.01 Bohr mag/cell
     absolute magnetization    =     0.01 Bohr mag/cell

     iteration # 14     ecut=    90.00 Ry     beta= 0.20
     Davidson diagonalization with overlap
     ethr =  8.07E-11,  avg # of iterations =  1.3

     total cpu time spent up to now is    22065.9 secs

     total energy              =   -2038.17486217 Ry
     estimated scf accuracy    <       0.00000009 Ry

     total magnetization       =     0.01 Bohr mag/cell
     absolute magnetization    =     0.01 Bohr mag/cell

     iteration # 15     ecut=    90.00 Ry     beta= 0.20
     Davidson diagonalization with overlap
     ethr =  7.40E-11,  avg # of iterations =  1.0

     total cpu time spent up to now is    22104.6 secs

     total energy              =   -2038.17486219 Ry
     estimated scf accuracy    <       0.00000010 Ry

     total magnetization       =     0.01 Bohr mag/cell
     absolute magnetization    =     0.01 Bohr mag/cell

     iteration # 16     ecut=    90.00 Ry     beta= 0.20
     Davidson diagonalization with overlap
     ethr =  7.40E-11,  avg # of iterations =  1.0

     total cpu time spent up to now is    22143.2 secs

     total energy              =   -2038.17486220 Ry
     estimated scf accuracy    <       0.00000018 Ry

     total magnetization       =     0.01 Bohr mag/cell
     absolute magnetization    =     0.01 Bohr mag/cell

     iteration # 17     ecut=    90.00 Ry     beta= 0.20
     Davidson diagonalization with overlap
     ethr =  7.40E-11,  avg # of iterations =  1.0

     total cpu time spent up to now is    22181.8 secs

     total energy              =   -2038.17486220 Ry
     estimated scf accuracy    <       0.00000022 Ry

     total magnetization       =     0.01 Bohr mag/cell
     absolute magnetization    =     0.01 Bohr mag/cell

     iteration # 18     ecut=    90.00 Ry     beta= 0.20
     Davidson diagonalization with overlap
     ethr =  7.40E-11,  avg # of iterations =  1.0

     total cpu time spent up to now is    22220.8 secs

     total energy              =   -2038.17486219 Ry
     estimated scf accuracy    <       0.00000013 Ry

     total magnetization       =     0.01 Bohr mag/cell
     absolute magnetization    =     0.01 Bohr mag/cell

     iteration # 19     ecut=    90.00 Ry     beta= 0.20
     Davidson diagonalization with overlap
     ethr =  7.40E-11,  avg # of iterations =  1.0

     total cpu time spent up to now is    22259.7 secs

     total energy              =   -2038.17486220 Ry
     estimated scf accuracy    <       0.00000016 Ry

     total magnetization       =     0.00 Bohr mag/cell
     absolute magnetization    =     0.00 Bohr mag/cell

     iteration # 20     ecut=    90.00 Ry     beta= 0.20
     Davidson diagonalization with overlap
     ethr =  7.40E-11,  avg # of iterations =  1.0

     total cpu time spent up to now is    22298.6 secs

     total energy              =   -2038.17486219 Ry
     estimated scf accuracy    <       0.00000050 Ry

     total magnetization       =     0.00 Bohr mag/cell
     absolute magnetization    =     0.00 Bohr mag/cell

     iteration # 21     ecut=    90.00 Ry     beta= 0.20
     Davidson diagonalization with overlap
     ethr =  7.40E-11,  avg # of iterations =  1.0

     total cpu time spent up to now is    22337.5 secs

     total energy              =   -2038.17486219 Ry
     estimated scf accuracy    <       0.00000015 Ry

     total magnetization       =     0.00 Bohr mag/cell
     absolute magnetization    =     0.00 Bohr mag/cell

     iteration # 22     ecut=    90.00 Ry     beta= 0.20
     Davidson diagonalization with overlap
     ethr =  7.40E-11,  avg # of iterations =  1.0

     total cpu time spent up to now is    22376.3 secs

     total energy              =   -2038.17486218 Ry
     estimated scf accuracy    <       0.00000017 Ry

     total magnetization       =     0.00 Bohr mag/cell
     absolute magnetization    =     0.00 Bohr mag/cell

     iteration # 23     ecut=    90.00 Ry     beta= 0.20
     Davidson diagonalization with overlap
     ethr =  7.40E-11,  avg # of iterations =  1.0

     total cpu time spent up to now is    22415.3 secs

     total energy              =   -2038.17486217 Ry
     estimated scf accuracy    <       0.00000023 Ry

     total magnetization       =     0.00 Bohr mag/cell
     absolute magnetization    =     0.00 Bohr mag/cell

     iteration # 24     ecut=    90.00 Ry     beta= 0.20
     Davidson diagonalization with overlap
