 # File generated with Atomsk by kevin on 2022-03-20 17:48:01
 
           8  atoms
           2  atom types
 
      0.000000000000       4.573000000000  xlo xhi
      0.000000000000       4.573000000000  ylo yhi
      0.000000000000       4.573000000000  zlo zhi
      0.000000000000       0.000000000000      -0.022865000000  xy xz yz
 
Masses
 
            1   58.93319500             # Co
            2   0.00000000              # XX
 
Atoms # atomic
 
         1    1        0.001000380503      -0.009025586686       0.000718086295
         2    4        2.278279408062       2.278817862108       2.276696804001
         3    1        0.001000380503       2.266041913314       2.287218086295
         4    4        2.278279408062       0.003750362108      -0.009803195999
         5    1        2.287500380503       2.277474413314       0.000718086295
         6    4        0.001000380503      -0.020458086686       2.287218086295
         7    1        2.287500380503      -0.020458086686       2.287218086295
         8    4        0.001000380503       2.277474413314       0.000718086295
