 # File generated with Atomsk by kevin on 2022-03-20 17:48:00
 
           8  atoms
           2  atom types
 
      0.000000000000       4.573000000000  xlo xhi
      0.000000000000       4.573000000000  ylo yhi
      0.000000000000       4.595865000000  zlo zhi
 
Masses
 
            1   58.93319500             # Co
            2   0.00000000              # XX
 
Atoms # atomic
 
         1    1       -0.003935304116       0.006413159769      -0.003543573862
         2    4        2.296241800923       2.278321162454       2.288647738777
         3    1       -0.003935304116       2.292913159769       2.294388926138
         4    4        2.296241800923      -0.008178837546      -0.009284761223
         5    1        2.282564695884       2.292913159769      -0.003543573862
         6    4       -0.003935304116       0.006413159769       2.294388926138
         7    1        2.282564695884       0.006413159769       2.294388926138
         8    4       -0.003935304116       2.292913159769      -0.003543573862
