 # File generated with Atomsk by kevin on 2022-03-20 17:48:01
 
           8  atoms
           2  atom types
 
      0.000000000000       4.573000000000  xlo xhi
      0.000000000000       4.573000000000  ylo yhi
      0.000000000000       4.573000000000  zlo zhi
      0.000000000000       0.022865000000       0.000000000000  xy xz yz
 
Masses
 
            1   58.93319500             # Co
            2   0.00000000              # XX
 
Atoms # atomic
 
         1    1       -0.006122200049      -0.008036995535       0.007625593790
         2    4        2.298535460463       2.279248927820       2.280969107269
         3    1        0.005310299951       2.278463004465       2.294125593790
         4    4        2.287102960463      -0.007251072180      -0.005530892731
         5    1        2.280377799951       2.278463004465       0.007625593790
         6    4        0.005310299951      -0.008036995535       2.294125593790
         7    1        2.291810299951      -0.008036995535       2.294125593790
         8    4       -0.006122200049       2.278463004465       0.007625593790
