 # File generated with Atomsk by kevin on 2022-03-20 17:48:01
 
           8  atoms
           2  atom types
 
      0.000000000000       4.573000000000  xlo xhi
      0.000000000000       4.573000000000  ylo yhi
      0.000000000000       4.573000000000  zlo zhi
      0.000000000000       0.000000000000       0.022865000000  xy xz yz
 
Masses
 
            1   58.93319500             # Co
            2   0.00000000              # XX
 
Atoms # atomic
 
         1    1        0.002437875264      -0.001384757865       0.003603254635
         2    4        2.279543136790       2.295720643047       2.279009218411
         3    1        0.002437875264       2.296547742135       2.290103254635
         4    4        2.279543136790      -0.002211856953      -0.007490781589
         5    1        2.288937875264       2.285115242135       0.003603254635
         6    4        0.002437875264       0.010047742135       2.290103254635
         7    1        2.288937875264       0.010047742135       2.290103254635
         8    4        0.002437875264       2.285115242135       0.003603254635
