
     Program PWSCF v.6.7MaX starts on 22Mar2022 at 13: 4:31 

     This program is part of the open-source Quantum ESPRESSO suite
     for quantum simulation of materials; please cite
         "P. Giannozzi et al., J. Phys.:Condens. Matter 21 395502 (2009);
         "P. Giannozzi et al., J. Phys.:Condens. Matter 29 465901 (2017);
          URL http://www.quantum-espresso.org", 
     in publications or presentations arising from this work. More details at
     http://www.quantum-espresso.org/quote

     Parallel version (MPI), running on    24 processors

     MPI processes distributed on     1 nodes
     R & G space division:  proc/nbgrp/npool/nimage =      24
     Reading input from /home/kevin/QE_CoCrFeMnNi/CoCrFeMnNi/Opt/binary/Opt-B1-CoMn/Mix/elastic/Chg_4-B1-CoMn.in

     Current dimensions of program PWSCF are:
     Max number of different atomic species (ntypx) = 10
     Max number of k-points (npk) =  40000
     Max angular momentum in pseudopotentials (lmaxx) =  3

     Subspace diagonalization in iterative solution of the eigenvalue problem:
     a serial algorithm will be used

     Found symmetry operation: I + ( -0.0000 -0.5000 -0.5000)
     This is a supercell, fractional translations are disabled

     Parallelization info
     --------------------
     sticks:   dense  smooth     PW     G-vecs:    dense   smooth      PW
     Min         267      89     25                16108     3100     463
     Max         268      90     26                16110     3102     468
     Sum        6417    2145    601               386617    74421   11171



     bravais-lattice index     =            0
     lattice parameter (alat)  =       8.6417  a.u.
     unit-cell volume          =     645.3573 (a.u.)^3
     number of atoms/cell      =            8
     number of atomic types    =            2
     number of electrons       =       128.00
     number of Kohn-Sham states=           77
     kinetic-energy cutoff     =      90.0000  Ry
     charge density cutoff     =    1080.0000  Ry
     scf convergence threshold =      1.0E-08
     mixing beta               =       0.2000
     number of iterations used =            8  plain     mixing
     energy convergence thresh.=      1.0E-05
     force convergence thresh. =      1.0E-04
     Exchange-correlation= SLA  PW   PBE  PBE
                           (   1   4   3   4   0   0   0)
     nstep                     =          100


     celldm(1)=   8.641718  celldm(2)=   0.000000  celldm(3)=   0.000000
     celldm(4)=   0.000000  celldm(5)=   0.000000  celldm(6)=   0.000000

     crystal axes: (cart. coord. in units of alat)
               a(1) = (   1.000000   0.000000   0.000000 )  
               a(2) = (   0.000000   1.000000   0.000000 )  
               a(3) = (   0.000000   0.005000   1.000000 )  

     reciprocal axes: (cart. coord. in units 2 pi/alat)
               b(1) = (  1.000000  0.000000  0.000000 )  
               b(2) = (  0.000000  1.000000 -0.005000 )  
               b(3) = (  0.000000  0.000000  1.000000 )  


     PseudoPot. # 1 for Mn read from file:
     /opt/QEpot/SSSP_efficiency_pseudos/mn_pbe_v1.5.uspp.F.UPF
     MD5 check sum: 82ef2b46521d7a7d9e736dc3972e4928
     Pseudo is Ultrasoft + core correction, Zval = 15.0
     Generated by new atomic code, or converted to UPF format
     Using radial grid of  859 points,  6 beta functions with: 
                l(1) =   0
                l(2) =   0
                l(3) =   1
                l(4) =   1
                l(5) =   2
                l(6) =   2
     Q(r) pseudized with  8 coefficients,  rinner =    0.950   0.950   0.950
                                                       0.950   0.950

     PseudoPot. # 2 for Co read from file:
     /opt/QEpot/SSSP_efficiency_pseudos/Co_pbe_v1.2.uspp.F.UPF
     MD5 check sum: 5f91765df6ddd3222702df6e7b74a16d
     Pseudo is Ultrasoft + core correction, Zval = 17.0
     Generated by new atomic code, or converted to UPF format
     Using radial grid of  863 points,  6 beta functions with: 
                l(1) =   0
                l(2) =   0
                l(3) =   1
                l(4) =   1
                l(5) =   2
                l(6) =   2
     Q(r) pseudized with  8 coefficients,  rinner =    1.200   1.200   1.200
                                                       1.200   1.200

     atomic species   valence    mass     pseudopotential
        Mn            15.00    54.93800     Mn( 1.00)
        Co            17.00    58.93300     Co( 1.00)

     Starting magnetic structure 
     atomic species   magnetization
        Mn           0.000
        Co           0.000

     No symmetry found



   Cartesian axes

     site n.     atom                  positions (alat units)
         1           Mn  tau(   1) = (   0.0011038   0.4997355   0.0013419  )
         2           Co  tau(   2) = (   0.5009331   0.0021615   0.5005088  )
         3           Mn  tau(   3) = (   0.0011038   0.0022355   0.5013421  )
         4           Co  tau(   4) = (   0.5009342   0.4996615   0.0005082  )
         5           Mn  tau(   5) = (   0.4980761  -0.0004908  -0.0019922  )
         6           Co  tau(   6) = (  -0.0000342   0.5022018   0.5008680  )
         7           Mn  tau(   7) = (   0.4980757   0.5020091   0.4980069  )
         8           Co  tau(   8) = (  -0.0000365  -0.0002983   0.0008678  )

     number of k points=   112  Gaussian smearing, width (Ry)=  0.0100

     Number of k-points >= 100: set verbosity='high' to print them.

     Dense  grid:   386617 G-vectors     FFT dimensions: (  96,  96,  96)

     Smooth grid:    74421 G-vectors     FFT dimensions: (  54,  54,  54)

     Estimated max dynamical RAM per process >     174.15 MB

     Estimated total dynamical RAM >       4.08 GB

     Check: negative core charge=   -0.000017
     Generating pointlists ...
     new r_m :   0.2052 (alat units)  1.7735 (a.u.) for type    1
     new r_m :   0.2052 (alat units)  1.7735 (a.u.) for type    2

     Initial potential from superposition of free atoms

     starting charge  121.99963, renormalised to  128.00000
     Starting wfcs are  104 randomized atomic wfcs

     total cpu time spent up to now is       21.3 secs

     Self-consistent Calculation

     iteration #  1     ecut=    90.00 Ry     beta= 0.20
     Davidson diagonalization with overlap
     ethr =  1.00E-02,  avg # of iterations =  2.6

     total cpu time spent up to now is       74.2 secs

     total energy              =   -2029.06958221 Ry
     estimated scf accuracy    <      50.32347308 Ry

     total magnetization       =    -0.00 Bohr mag/cell
     absolute magnetization    =     0.01 Bohr mag/cell

     iteration #  2     ecut=    90.00 Ry     beta= 0.20
     Davidson diagonalization with overlap
     ethr =  1.00E-02,  avg # of iterations =  4.1

     total cpu time spent up to now is      143.0 secs

     total energy              =   -2036.05166568 Ry
     estimated scf accuracy    <      51.63022727 Ry

     total magnetization       =    -0.00 Bohr mag/cell
     absolute magnetization    =     0.01 Bohr mag/cell

     iteration #  3     ecut=    90.00 Ry     beta= 0.20
     Davidson diagonalization with overlap
     ethr =  1.00E-02,  avg # of iterations =  2.5

     total cpu time spent up to now is      191.3 secs

     total energy              =   -2036.03933979 Ry
     estimated scf accuracy    <       5.17517285 Ry

     total magnetization       =    -0.00 Bohr mag/cell
     absolute magnetization    =     0.04 Bohr mag/cell

     iteration #  4     ecut=    90.00 Ry     beta= 0.20
     Davidson diagonalization with overlap
     ethr =  4.04E-03,  avg # of iterations =  4.8

     total cpu time spent up to now is      257.5 secs

     total energy              =   -2034.44303271 Ry
     estimated scf accuracy    <      70.95523372 Ry

     total magnetization       =    -0.00 Bohr mag/cell
     absolute magnetization    =     0.01 Bohr mag/cell

     iteration #  5     ecut=    90.00 Ry     beta= 0.20
     Davidson diagonalization with overlap
     ethr =  4.04E-03,  avg # of iterations =  3.6

     total cpu time spent up to now is      309.6 secs

     total energy              =   -2038.24682072 Ry
     estimated scf accuracy    <       1.74647307 Ry

     total magnetization       =    -0.01 Bohr mag/cell
     absolute magnetization    =     0.02 Bohr mag/cell

     iteration #  6     ecut=    90.00 Ry     beta= 0.20
     Davidson diagonalization with overlap
     ethr =  1.36E-03,  avg # of iterations =  2.5

     total cpu time spent up to now is      353.6 secs

     total energy              =   -2038.26810945 Ry
     estimated scf accuracy    <       2.77559552 Ry

     total magnetization       =     0.01 Bohr mag/cell
     absolute magnetization    =     0.01 Bohr mag/cell

     iteration #  7     ecut=    90.00 Ry     beta= 0.20
     Davidson diagonalization with overlap
     ethr =  1.36E-03,  avg # of iterations =  1.2

     total cpu time spent up to now is      392.4 secs

     total energy              =   -2038.22590690 Ry
     estimated scf accuracy    <       2.48581291 Ry

     total magnetization       =    -0.00 Bohr mag/cell
     absolute magnetization    =     0.01 Bohr mag/cell

     iteration #  8     ecut=    90.00 Ry     beta= 0.20
     Davidson diagonalization with overlap
     ethr =  1.36E-03,  avg # of iterations =  1.1

     total cpu time spent up to now is      430.7 secs

     total energy              =   -2038.19147876 Ry
     estimated scf accuracy    <       1.39585908 Ry

     total magnetization       =    -0.00 Bohr mag/cell
     absolute magnetization    =     0.01 Bohr mag/cell

     iteration #  9     ecut=    90.00 Ry     beta= 0.20
     Davidson diagonalization with overlap
     ethr =  1.09E-03,  avg # of iterations =  1.0

     total cpu time spent up to now is      468.8 secs

     total energy              =   -2038.16704235 Ry
     estimated scf accuracy    <       0.76377769 Ry

     total magnetization       =    -0.01 Bohr mag/cell
     absolute magnetization    =     0.01 Bohr mag/cell

     iteration # 10     ecut=    90.00 Ry     beta= 0.20
     Davidson diagonalization with overlap
     ethr =  5.97E-04,  avg # of iterations =  1.0

     total cpu time spent up to now is      507.0 secs

     total energy              =   -2038.17868804 Ry
     estimated scf accuracy    <       0.10559083 Ry

     total magnetization       =    -0.01 Bohr mag/cell
     absolute magnetization    =     0.01 Bohr mag/cell

     iteration # 11     ecut=    90.00 Ry     beta= 0.20
     Davidson diagonalization with overlap
     ethr =  8.25E-05,  avg # of iterations =  1.2

     total cpu time spent up to now is      545.9 secs

     total energy              =   -2038.17009859 Ry
     estimated scf accuracy    <       0.12659663 Ry

     total magnetization       =    -0.01 Bohr mag/cell
     absolute magnetization    =     0.01 Bohr mag/cell

     iteration # 12     ecut=    90.00 Ry     beta= 0.20
     Davidson diagonalization with overlap
     ethr =  8.25E-05,  avg # of iterations =  1.2

     total cpu time spent up to now is      584.5 secs

     total energy              =   -2038.17388755 Ry
     estimated scf accuracy    <       0.00330980 Ry

     total magnetization       =    -0.01 Bohr mag/cell
     absolute magnetization    =     0.01 Bohr mag/cell

     iteration # 13     ecut=    90.00 Ry     beta= 0.20
     Davidson diagonalization with overlap
     ethr =  2.59E-06,  avg # of iterations =  4.6

     total cpu time spent up to now is      641.9 secs

     total energy              =   -2038.17469596 Ry
     estimated scf accuracy    <       0.00886935 Ry

     total magnetization       =    -0.01 Bohr mag/cell
     absolute magnetization    =     0.01 Bohr mag/cell

     iteration # 14     ecut=    90.00 Ry     beta= 0.20
     Davidson diagonalization with overlap
     ethr =  2.59E-06,  avg # of iterations =  1.0

     total cpu time spent up to now is      680.0 secs

     total energy              =   -2038.17408831 Ry
     estimated scf accuracy    <       0.01290508 Ry

     total magnetization       =    -0.01 Bohr mag/cell
     absolute magnetization    =     0.02 Bohr mag/cell

     iteration # 15     ecut=    90.00 Ry     beta= 0.20
     Davidson diagonalization with overlap
     ethr =  2.59E-06,  avg # of iterations =  1.0

     total cpu time spent up to now is      718.1 secs

     total energy              =   -2038.17443630 Ry
     estimated scf accuracy    <       0.00043814 Ry

     total magnetization       =    -0.01 Bohr mag/cell
     absolute magnetization    =     0.02 Bohr mag/cell

     iteration # 16     ecut=    90.00 Ry     beta= 0.20
     Davidson diagonalization with overlap
     ethr =  3.42E-07,  avg # of iterations =  2.2

     total cpu time spent up to now is      763.7 secs

     total energy              =   -2038.17444356 Ry
     estimated scf accuracy    <       0.00087270 Ry

     total magnetization       =    -0.02 Bohr mag/cell
     absolute magnetization    =     0.02 Bohr mag/cell

     iteration # 17     ecut=    90.00 Ry     beta= 0.20
     Davidson diagonalization with overlap
     ethr =  3.42E-07,  avg # of iterations =  1.0

     total cpu time spent up to now is      801.8 secs

     total energy              =   -2038.17444616 Ry
     estimated scf accuracy    <       0.00043680 Ry

     total magnetization       =    -0.03 Bohr mag/cell
     absolute magnetization    =     0.03 Bohr mag/cell

     iteration # 18     ecut=    90.00 Ry     beta= 0.20
     Davidson diagonalization with overlap
     ethr =  3.41E-07,  avg # of iterations =  1.0

     total cpu time spent up to now is      839.9 secs

     total energy              =   -2038.17443725 Ry
     estimated scf accuracy    <       0.00167051 Ry

     total magnetization       =    -0.02 Bohr mag/cell
     absolute magnetization    =     0.03 Bohr mag/cell

     iteration # 19     ecut=    90.00 Ry     beta= 0.20
     Davidson diagonalization with overlap
     ethr =  3.41E-07,  avg # of iterations =  1.0

     total cpu time spent up to now is      878.0 secs

     total energy              =   -2038.17444644 Ry
     estimated scf accuracy    <       0.00079189 Ry

     total magnetization       =    -0.03 Bohr mag/cell
     absolute magnetization    =     0.03 Bohr mag/cell

     iteration # 20     ecut=    90.00 Ry     beta= 0.20
     Davidson diagonalization with overlap
     ethr =  3.41E-07,  avg # of iterations =  1.0

     total cpu time spent up to now is      916.0 secs

     total energy              =   -2038.17444316 Ry
     estimated scf accuracy    <       0.00051853 Ry

     total magnetization       =    -0.04 Bohr mag/cell
     absolute magnetization    =     0.04 Bohr mag/cell

     iteration # 21     ecut=    90.00 Ry     beta= 0.20
     Davidson diagonalization with overlap
     ethr =  3.41E-07,  avg # of iterations =  1.0

     total cpu time spent up to now is      954.1 secs

     total energy              =   -2038.17446128 Ry
     estimated scf accuracy    <       0.00016550 Ry

     total magnetization       =    -0.03 Bohr mag/cell
     absolute magnetization    =     0.03 Bohr mag/cell

     iteration # 22     ecut=    90.00 Ry     beta= 0.20
     Davidson diagonalization with overlap
     ethr =  1.29E-07,  avg # of iterations =  1.0

     total cpu time spent up to now is      992.1 secs

     total energy              =   -2038.17446619 Ry
     estimated scf accuracy    <       0.00002053 Ry

     total magnetization       =    -0.04 Bohr mag/cell
     absolute magnetization    =     0.05 Bohr mag/cell

     iteration # 23     ecut=    90.00 Ry     beta= 0.20
     Davidson diagonalization with overlap
     ethr =  1.60E-08,  avg # of iterations =  1.0

     total cpu time spent up to now is     1030.2 secs

     total energy              =   -2038.17446763 Ry
     estimated scf accuracy    <       0.00001846 Ry

     total magnetization       =    -0.05 Bohr mag/cell
     absolute magnetization    =     0.05 Bohr mag/cell

     iteration # 24     ecut=    90.00 Ry     beta= 0.20
     Davidson diagonalization with overlap
     ethr =  1.44E-08,  avg # of iterations =  1.0

     total cpu time spent up to now is     1068.3 secs

     total energy              =   -2038.17446787 Ry
     estimated scf accuracy    <       0.00001069 Ry

     total magnetization       =    -0.06 Bohr mag/cell
     absolute magnetization    =     0.06 Bohr mag/cell

     iteration # 25     ecut=    90.00 Ry     beta= 0.20
     Davidson diagonalization with overlap
     ethr =  8.35E-09,  avg # of iterations =  1.0

     total cpu time spent up to now is     1106.4 secs

     total energy              =   -2038.17446791 Ry
     estimated scf accuracy    <       0.00001324 Ry

     total magnetization       =    -0.06 Bohr mag/cell
     absolute magnetization    =     0.06 Bohr mag/cell

     iteration # 26     ecut=    90.00 Ry     beta= 0.20
     Davidson diagonalization with overlap
     ethr =  8.35E-09,  avg # of iterations =  1.0

     total cpu time spent up to now is     1144.4 secs

     total energy              =   -2038.17446746 Ry
     estimated scf accuracy    <       0.00001295 Ry

     total magnetization       =    -0.06 Bohr mag/cell
     absolute magnetization    =     0.06 Bohr mag/cell

     iteration # 27     ecut=    90.00 Ry     beta= 0.20
     Davidson diagonalization with overlap
     ethr =  8.35E-09,  avg # of iterations =  1.0

     total cpu time spent up to now is     1182.4 secs

     total energy              =   -2038.17446745 Ry
     estimated scf accuracy    <       0.00001488 Ry

     total magnetization       =    -0.05 Bohr mag/cell
     absolute magnetization    =     0.06 Bohr mag/cell

     iteration # 28     ecut=    90.00 Ry     beta= 0.20
     Davidson diagonalization with overlap
     ethr =  8.35E-09,  avg # of iterations =  1.0

     total cpu time spent up to now is     1220.5 secs

     total energy              =   -2038.17446626 Ry
     estimated scf accuracy    <       0.00004552 Ry

     total magnetization       =    -0.06 Bohr mag/cell
     absolute magnetization    =     0.06 Bohr mag/cell

     iteration # 29     ecut=    90.00 Ry     beta= 0.20
     Davidson diagonalization with overlap
     ethr =  8.35E-09,  avg # of iterations =  1.0

     total cpu time spent up to now is     1258.5 secs

     total energy              =   -2038.17446607 Ry
     estimated scf accuracy    <       0.00001256 Ry

     total magnetization       =    -0.05 Bohr mag/cell
     absolute magnetization    =     0.05 Bohr mag/cell

     iteration # 30     ecut=    90.00 Ry     beta= 0.20
     Davidson diagonalization with overlap
     ethr =  8.35E-09,  avg # of iterations =  1.0

     total cpu time spent up to now is     1296.5 secs

     total energy              =   -2038.17446573 Ry
     estimated scf accuracy    <       0.00001512 Ry

     total magnetization       =    -0.05 Bohr mag/cell
     absolute magnetization    =     0.05 Bohr mag/cell

     iteration # 31     ecut=    90.00 Ry     beta= 0.20
     Davidson diagonalization with overlap
     ethr =  8.35E-09,  avg # of iterations =  1.0

     total cpu time spent up to now is     1334.4 secs

     total energy              =   -2038.17445903 Ry
     estimated scf accuracy    <       0.00005684 Ry

     total magnetization       =    -0.05 Bohr mag/cell
     absolute magnetization    =     0.05 Bohr mag/cell

     iteration # 32     ecut=    90.00 Ry     beta= 0.20
     Davidson diagonalization with overlap
     ethr =  8.35E-09,  avg # of iterations =  1.1

     total cpu time spent up to now is     1373.1 secs

     total energy              =   -2038.17446234 Ry
     estimated scf accuracy    <       0.00001248 Ry

     total magnetization       =    -0.01 Bohr mag/cell
     absolute magnetization    =     0.02 Bohr mag/cell

     iteration # 33     ecut=    90.00 Ry     beta= 0.20
     Davidson diagonalization with overlap
     ethr =  8.35E-09,  avg # of iterations =  1.1

     total cpu time spent up to now is     1411.2 secs

     total energy              =   -2038.17446186 Ry
     estimated scf accuracy    <       0.00002116 Ry

     total magnetization       =    -0.01 Bohr mag/cell
     absolute magnetization    =     0.02 Bohr mag/cell

     iteration # 34     ecut=    90.00 Ry     beta= 0.20
     Davidson diagonalization with overlap
     ethr =  8.35E-09,  avg # of iterations =  1.0

     total cpu time spent up to now is     1449.3 secs

     total energy              =   -2038.17446242 Ry
     estimated scf accuracy    <       0.00001178 Ry

     total magnetization       =     0.01 Bohr mag/cell
     absolute magnetization    =     0.01 Bohr mag/cell

     iteration # 35     ecut=    90.00 Ry     beta= 0.20
     Davidson diagonalization with overlap
     ethr =  8.35E-09,  avg # of iterations =  1.0

     total cpu time spent up to now is     1487.2 secs

     total energy              =   -2038.17446281 Ry
     estimated scf accuracy    <       0.00000145 Ry

     total magnetization       =     0.01 Bohr mag/cell
     absolute magnetization    =     0.01 Bohr mag/cell

     iteration # 36     ecut=    90.00 Ry     beta= 0.20
     Davidson diagonalization with overlap
     ethr =  1.13E-09,  avg # of iterations =  1.1

     total cpu time spent up to now is     1525.4 secs

     total energy              =   -2038.17446283 Ry
     estimated scf accuracy    <       0.00000105 Ry

     total magnetization       =     0.01 Bohr mag/cell
     absolute magnetization    =     0.02 Bohr mag/cell

     iteration # 37     ecut=    90.00 Ry     beta= 0.20
     Davidson diagonalization with overlap
     ethr =  8.18E-10,  avg # of iterations =  1.0

     total cpu time spent up to now is     1563.6 secs

     total energy              =   -2038.17446287 Ry
     estimated scf accuracy    <       0.00000252 Ry

     total magnetization       =     0.01 Bohr mag/cell
     absolute magnetization    =     0.02 Bohr mag/cell

     iteration # 38     ecut=    90.00 Ry     beta= 0.20
     Davidson diagonalization with overlap
     ethr =  8.18E-10,  avg # of iterations =  1.0

     total cpu time spent up to now is     1601.5 secs

     total energy              =   -2038.17446296 Ry
     estimated scf accuracy    <       0.00000121 Ry

     total magnetization       =     0.01 Bohr mag/cell
     absolute magnetization    =     0.02 Bohr mag/cell

     iteration # 39     ecut=    90.00 Ry     beta= 0.20
     Davidson diagonalization with overlap
     ethr =  8.18E-10,  avg # of iterations =  1.0

     total cpu time spent up to now is     1639.4 secs

     total energy              =   -2038.17446298 Ry
     estimated scf accuracy    <       0.00000091 Ry

     total magnetization       =     0.01 Bohr mag/cell
     absolute magnetization    =     0.02 Bohr mag/cell

     iteration # 40     ecut=    90.00 Ry     beta= 0.20
     Davidson diagonalization with overlap
     ethr =  7.12E-10,  avg # of iterations =  1.0

     total cpu time spent up to now is     1677.3 secs

     total energy              =   -2038.17446301 Ry
     estimated scf accuracy    <       0.00000167 Ry

     total magnetization       =     0.01 Bohr mag/cell
     absolute magnetization    =     0.02 Bohr mag/cell

     iteration # 41     ecut=    90.00 Ry     beta= 0.20
     Davidson diagonalization with overlap
     ethr =  7.12E-10,  avg # of iterations =  1.0

     total cpu time spent up to now is     1715.2 secs

     total energy              =   -2038.17446297 Ry
     estimated scf accuracy    <       0.00000217 Ry

     total magnetization       =     0.01 Bohr mag/cell
     absolute magnetization    =     0.02 Bohr mag/cell

     iteration # 42     ecut=    90.00 Ry     beta= 0.20
     Davidson diagonalization with overlap
     ethr =  7.12E-10,  avg # of iterations =  1.0

     total cpu time spent up to now is     1753.0 secs

     total energy              =   -2038.17446299 Ry
     estimated scf accuracy    <       0.00000111 Ry

     total magnetization       =     0.01 Bohr mag/cell
     absolute magnetization    =     0.02 Bohr mag/cell

     iteration # 43     ecut=    90.00 Ry     beta= 0.20
     Davidson diagonalization with overlap
     ethr =  7.12E-10,  avg # of iterations =  1.0

     total cpu time spent up to now is     1790.9 secs

     total energy              =   -2038.17446286 Ry
     estimated scf accuracy    <       0.00000232 Ry

     total magnetization       =     0.01 Bohr mag/cell
     absolute magnetization    =     0.02 Bohr mag/cell

     iteration # 44     ecut=    90.00 Ry     beta= 0.20
     Davidson diagonalization with overlap
     ethr =  7.12E-10,  avg # of iterations =  1.0

     total cpu time spent up to now is     1828.7 secs

     total energy              =   -2038.17446286 Ry
     estimated scf accuracy    <       0.00000140 Ry

     total magnetization       =     0.01 Bohr mag/cell
     absolute magnetization    =     0.02 Bohr mag/cell

     iteration # 45     ecut=    90.00 Ry     beta= 0.20
     Davidson diagonalization with overlap
     ethr =  7.12E-10,  avg # of iterations =  1.0

     total cpu time spent up to now is     1866.6 secs

     total energy              =   -2038.17446294 Ry
     estimated scf accuracy    <       0.00000176 Ry

     total magnetization       =     0.01 Bohr mag/cell
     absolute magnetization    =     0.02 Bohr mag/cell

     iteration # 46     ecut=    90.00 Ry     beta= 0.20
     Davidson diagonalization with overlap
     ethr =  7.12E-10,  avg # of iterations =  1.0

     total cpu time spent up to now is     1904.5 secs

     total energy              =   -2038.17446260 Ry
     estimated scf accuracy    <       0.00000814 Ry

     total magnetization       =     0.01 Bohr mag/cell
     absolute magnetization    =     0.02 Bohr mag/cell

     iteration # 47     ecut=    90.00 Ry     beta= 0.20
     Davidson diagonalization with overlap
     ethr =  7.12E-10,  avg # of iterations =  1.2

     total cpu time spent up to now is     1943.6 secs

     total energy              =   -2038.17446273 Ry
     estimated scf accuracy    <       0.00000709 Ry

     total magnetization       =     0.01 Bohr mag/cell
     absolute magnetization    =     0.02 Bohr mag/cell

     iteration # 48     ecut=    90.00 Ry     beta= 0.20
     Davidson diagonalization with overlap
     ethr =  7.12E-10,  avg # of iterations =  1.0

     total cpu time spent up to now is     1981.5 secs

     total energy              =   -2038.17446271 Ry
     estimated scf accuracy    <       0.00000332 Ry

     total magnetization       =     0.01 Bohr mag/cell
     absolute magnetization    =     0.02 Bohr mag/cell

     iteration # 49     ecut=    90.00 Ry     beta= 0.20
     Davidson diagonalization with overlap
     ethr =  7.12E-10,  avg # of iterations =  1.0

     total cpu time spent up to now is     2019.3 secs

     total energy              =   -2038.17446285 Ry
     estimated scf accuracy    <       0.00000133 Ry

     total magnetization       =     0.00 Bohr mag/cell
     absolute magnetization    =     0.02 Bohr mag/cell

     iteration # 50     ecut=    90.00 Ry     beta= 0.20
     Davidson diagonalization with overlap
     ethr =  7.12E-10,  avg # of iterations =  1.0

     total cpu time spent up to now is     2057.1 secs

     total energy              =   -2038.17446287 Ry
     estimated scf accuracy    <       0.00000075 Ry

     total magnetization       =     0.00 Bohr mag/cell
     absolute magnetization    =     0.02 Bohr mag/cell

     iteration # 51     ecut=    90.00 Ry     beta= 0.20
     Davidson diagonalization with overlap
     ethr =  5.86E-10,  avg # of iterations =  1.0

     total cpu time spent up to now is     2094.9 secs

     total energy              =   -2038.17446296 Ry
     estimated scf accuracy    <       0.00000060 Ry

     total magnetization       =     0.00 Bohr mag/cell
     absolute magnetization    =     0.02 Bohr mag/cell

     iteration # 52     ecut=    90.00 Ry     beta= 0.20
     Davidson diagonalization with overlap
     ethr =  4.69E-10,  avg # of iterations =  1.0

     total cpu time spent up to now is     2132.7 secs

     total energy              =   -2038.17446273 Ry
     estimated scf accuracy    <       0.00000072 Ry

     total magnetization       =     0.00 Bohr mag/cell
     absolute magnetization    =     0.02 Bohr mag/cell

     iteration # 53     ecut=    90.00 Ry     beta= 0.20
     Davidson diagonalization with overlap
     ethr =  4.69E-10,  avg # of iterations =  1.0

     total cpu time spent up to now is     2170.5 secs

     total energy              =   -2038.17446264 Ry
     estimated scf accuracy    <       0.00000112 Ry

     total magnetization       =    -0.00 Bohr mag/cell
     absolute magnetization    =     0.02 Bohr mag/cell

     iteration # 54     ecut=    90.00 Ry     beta= 0.20
     Davidson diagonalization with overlap
     ethr =  4.69E-10,  avg # of iterations =  1.0

     total cpu time spent up to now is     2208.4 secs

     total energy              =   -2038.17446256 Ry
     estimated scf accuracy    <       0.00000055 Ry

     total magnetization       =     0.00 Bohr mag/cell
     absolute magnetization    =     0.01 Bohr mag/cell

     iteration # 55     ecut=    90.00 Ry     beta= 0.20
     Davidson diagonalization with overlap
     ethr =  4.33E-10,  avg # of iterations =  1.5

     total cpu time spent up to now is     2248.5 secs

     total energy              =   -2038.17446246 Ry
     estimated scf accuracy    <       0.00000202 Ry

     total magnetization       =     0.00 Bohr mag/cell
     absolute magnetization    =     0.01 Bohr mag/cell

     iteration # 56     ecut=    90.00 Ry     beta= 0.20
     Davidson diagonalization with overlap
     ethr =  4.33E-10,  avg # of iterations =  1.7

     total cpu time spent up to now is     2289.1 secs

     total energy              =   -2038.17446256 Ry
     estimated scf accuracy    <       0.00000114 Ry

     total magnetization       =     0.01 Bohr mag/cell
     absolute magnetization    =     0.01 Bohr mag/cell

     iteration # 57     ecut=    90.00 Ry     beta= 0.20
     Davidson diagonalization with overlap
     ethr =  4.33E-10,  avg # of iterations =  1.0

     total cpu time spent up to now is     2326.9 secs

     total energy              =   -2038.17446258 Ry
     estimated scf accuracy    <       0.00000075 Ry

     total magnetization       =     0.01 Bohr mag/cell
     absolute magnetization    =     0.01 Bohr mag/cell

     iteration # 58     ecut=    90.00 Ry     beta= 0.20
     Davidson diagonalization with overlap
     ethr =  4.33E-10,  avg # of iterations =  1.0

     total cpu time spent up to now is     2364.6 secs

     total energy              =   -2038.17446259 Ry
     estimated scf accuracy    <       0.00000032 Ry

     total magnetization       =     0.01 Bohr mag/cell
     absolute magnetization    =     0.01 Bohr mag/cell

     iteration # 59     ecut=    90.00 Ry     beta= 0.20
     Davidson diagonalization with overlap
     ethr =  2.48E-10,  avg # of iterations =  1.0

     total cpu time spent up to now is     2402.4 secs

     total energy              =   -2038.17446260 Ry
     estimated scf accuracy    <       0.00000018 Ry

     total magnetization       =     0.01 Bohr mag/cell
     absolute magnetization    =     0.01 Bohr mag/cell

     iteration # 60     ecut=    90.00 Ry     beta= 0.20
     Davidson diagonalization with overlap
     ethr =  1.44E-10,  avg # of iterations =  1.0

     total cpu time spent up to now is     2440.1 secs

     total energy              =   -2038.17446261 Ry
     estimated scf accuracy    <       0.00000034 Ry

     total magnetization       =     0.01 Bohr mag/cell
     absolute magnetization    =     0.01 Bohr mag/cell

     iteration # 61     ecut=    90.00 Ry     beta= 0.20
     Davidson diagonalization with overlap
     ethr =  1.44E-10,  avg # of iterations =  1.0

     total cpu time spent up to now is     2477.8 secs

     total energy              =   -2038.17446262 Ry
     estimated scf accuracy    <       0.00000024 Ry

     total magnetization       =     0.01 Bohr mag/cell
     absolute magnetization    =     0.01 Bohr mag/cell

     iteration # 62     ecut=    90.00 Ry     beta= 0.20
     Davidson diagonalization with overlap
     ethr =  1.44E-10,  avg # of iterations =  1.0

     total cpu time spent up to now is     2515.5 secs

     total energy              =   -2038.17446263 Ry
     estimated scf accuracy    <       0.00000027 Ry

     total magnetization       =     0.01 Bohr mag/cell
     absolute magnetization    =     0.01 Bohr mag/cell

     iteration # 63     ecut=    90.00 Ry     beta= 0.20
     Davidson diagonalization with overlap
     ethr =  1.44E-10,  avg # of iterations =  1.0

     total cpu time spent up to now is     2553.2 secs

     total energy              =   -2038.17446259 Ry
     estimated scf accuracy    <       0.00000147 Ry

     total magnetization       =     0.01 Bohr mag/cell
     absolute magnetization    =     0.01 Bohr mag/cell

     iteration # 64     ecut=    90.00 Ry     beta= 0.20
     Davidson diagonalization with overlap
     ethr =  1.44E-10,  avg # of iterations =  1.0

     total cpu time spent up to now is     2591.0 secs

     total energy              =   -2038.17446255 Ry
     estimated scf accuracy    <       0.00000026 Ry

     total magnetization       =     0.01 Bohr mag/cell
     absolute magnetization    =     0.01 Bohr mag/cell

     iteration # 65     ecut=    90.00 Ry     beta= 0.20
     Davidson diagonalization with overlap
     ethr =  1.44E-10,  avg # of iterations =  1.0

     total cpu time spent up to now is     2628.7 secs

     total energy              =   -2038.17446256 Ry
     estimated scf accuracy    <       0.00000046 Ry

     total magnetization       =     0.01 Bohr mag/cell
     absolute magnetization    =     0.01 Bohr mag/cell

     iteration # 66     ecut=    90.00 Ry     beta= 0.20
     Davidson diagonalization with overlap
     ethr =  1.44E-10,  avg # of iterations =  1.1

     total cpu time spent up to now is     2666.9 secs

     total energy              =   -2038.17446255 Ry
     estimated scf accuracy    <       0.00000056 Ry

     total magnetization       =     0.01 Bohr mag/cell
     absolute magnetization    =     0.01 Bohr mag/cell

     iteration # 67     ecut=    90.00 Ry     beta= 0.20
     Davidson diagonalization with overlap
     ethr =  1.44E-10,  avg # of iterations =  1.0

     total cpu time spent up to now is     2704.6 secs

     total energy              =   -2038.17446255 Ry
     estimated scf accuracy    <       0.00000043 Ry

     total magnetization       =     0.00 Bohr mag/cell
     absolute magnetization    =     0.01 Bohr mag/cell

     iteration # 68     ecut=    90.00 Ry     beta= 0.20
     Davidson diagonalization with overlap
     ethr =  1.44E-10,  avg # of iterations =  1.0

     total cpu time spent up to now is     2742.3 secs

     total energy              =   -2038.17446256 Ry
     estimated scf accuracy    <       0.00000051 Ry

     total magnetization       =     0.00 Bohr mag/cell
     absolute magnetization    =     0.01 Bohr mag/cell

     iteration # 69     ecut=    90.00 Ry     beta= 0.20
     Davidson diagonalization with overlap
     ethr =  1.44E-10,  avg # of iterations =  1.0

     total cpu time spent up to now is     2780.0 secs

     total energy              =   -2038.17446253 Ry
     estimated scf accuracy    <       0.00000028 Ry

     total magnetization       =     0.00 Bohr mag/cell
     absolute magnetization    =     0.01 Bohr mag/cell

     iteration # 70     ecut=    90.00 Ry     beta= 0.20
     Davidson diagonalization with overlap
     ethr =  1.44E-10,  avg # of iterations =  1.0

     total cpu time spent up to now is     2817.7 secs

     total energy              =   -2038.17446253 Ry
     estimated scf accuracy    <       0.00000046 Ry

     total magnetization       =     0.00 Bohr mag/cell
     absolute magnetization    =     0.01 Bohr mag/cell

     iteration # 71     ecut=    90.00 Ry     beta= 0.20
     Davidson diagonalization with overlap
     ethr =  1.44E-10,  avg # of iterations =  1.0

     total cpu time spent up to now is     2855.5 secs

     total energy              =   -2038.17446255 Ry
     estimated scf accuracy    <       0.00000008 Ry

     total magnetization       =     0.00 Bohr mag/cell
     absolute magnetization    =     0.01 Bohr mag/cell

     iteration # 72     ecut=    90.00 Ry     beta= 0.20
     Davidson diagonalization with overlap
     ethr =  6.11E-11,  avg # of iterations =  1.0

     total cpu time spent up to now is     2893.2 secs

     total energy              =   -2038.17446254 Ry
     estimated scf accuracy    <       0.00000021 Ry

     total magnetization       =     0.00 Bohr mag/cell
     absolute magnetization    =     0.01 Bohr mag/cell

     iteration # 73     ecut=    90.00 Ry     beta= 0.20
     Davidson diagonalization with overlap
     ethr =  6.11E-11,  avg # of iterations =  1.0

     total cpu time spent up to now is     2931.0 secs

     total energy              =   -2038.17446253 Ry
     estimated scf accuracy    <       0.00000037 Ry

     total magnetization       =     0.00 Bohr mag/cell
     absolute magnetization    =     0.01 Bohr mag/cell

     iteration # 74     ecut=    90.00 Ry     beta= 0.20
     Davidson diagonalization with overlap
     ethr =  6.11E-11,  avg # of iterations =  1.0

     total cpu time spent up to now is     2968.7 secs

     total energy              =   -2038.17446255 Ry
     estimated scf accuracy    <       0.00000005 Ry

     total magnetization       =    -0.00 Bohr mag/cell
     absolute magnetization    =     0.01 Bohr mag/cell

     iteration # 75     ecut=    90.00 Ry     beta= 0.20
     Davidson diagonalization with overlap
     ethr =  4.00E-11,  avg # of iterations =  1.0

     total cpu time spent up to now is     3006.4 secs

     total energy              =   -2038.17446255 Ry
     estimated scf accuracy    <       0.00000006 Ry

     total magnetization       =    -0.00 Bohr mag/cell
     absolute magnetization    =     0.01 Bohr mag/cell

     iteration # 76     ecut=    90.00 Ry     beta= 0.20
     Davidson diagonalization with overlap
     ethr =  4.00E-11,  avg # of iterations =  1.0

     total cpu time spent up to now is     3044.1 secs

     total energy              =   -2038.17446255 Ry
     estimated scf accuracy    <       0.00000005 Ry

     total magnetization       =    -0.00 Bohr mag/cell
     absolute magnetization    =     0.01 Bohr mag/cell

     iteration # 77     ecut=    90.00 Ry     beta= 0.20
     Davidson diagonalization with overlap
     ethr =  3.66E-11,  avg # of iterations =  1.0

     total cpu time spent up to now is     3081.8 secs

     total energy              =   -2038.17446255 Ry
     estimated scf accuracy    <       0.00000006 Ry

     total magnetization       =    -0.00 Bohr mag/cell
     absolute magnetization    =     0.01 Bohr mag/cell

     iteration # 78     ecut=    90.00 Ry     beta= 0.20
     Davidson diagonalization with overlap
     ethr =  3.66E-11,  avg # of iterations =  1.0

     total cpu time spent up to now is     3119.6 secs

     total energy              =   -2038.17446254 Ry
     estimated scf accuracy    <       0.00000013 Ry

     total magnetization       =    -0.00 Bohr mag/cell
     absolute magnetization    =     0.01 Bohr mag/cell

     iteration # 79     ecut=    90.00 Ry     beta= 0.20
     Davidson diagonalization with overlap
     ethr =  3.66E-11,  avg # of iterations =  1.0

     total cpu time spent up to now is     3157.3 secs

     total energy              =   -2038.17446253 Ry
     estimated scf accuracy    <       0.00000027 Ry

     total magnetization       =    -0.00 Bohr mag/cell
     absolute magnetization    =     0.01 Bohr mag/cell

     iteration # 80     ecut=    90.00 Ry     beta= 0.20
     Davidson diagonalization with overlap
     ethr =  3.66E-11,  avg # of iterations =  1.0

     total cpu time spent up to now is     3195.1 secs

     total energy              =   -2038.17446251 Ry
     estimated scf accuracy    <       0.00000012 Ry

     total magnetization       =    -0.00 Bohr mag/cell
     absolute magnetization    =     0.01 Bohr mag/cell

     iteration # 81     ecut=    90.00 Ry     beta= 0.20
     Davidson diagonalization with overlap
     ethr =  3.66E-11,  avg # of iterations =  2.1

     total cpu time spent up to now is     3237.8 secs

     total energy              =   -2038.17446252 Ry
     estimated scf accuracy    <       0.00000002 Ry

     total magnetization       =    -0.00 Bohr mag/cell
     absolute magnetization    =     0.01 Bohr mag/cell

     iteration # 82     ecut=    90.00 Ry     beta= 0.20
     Davidson diagonalization with overlap
     ethr =  1.54E-11,  avg # of iterations =  1.3

     total cpu time spent up to now is     3277.0 secs

     total energy              =   -2038.17446252 Ry
     estimated scf accuracy    <       0.00000013 Ry

     total magnetization       =    -0.00 Bohr mag/cell
     absolute magnetization    =     0.01 Bohr mag/cell

     iteration # 83     ecut=    90.00 Ry     beta= 0.20
     Davidson diagonalization with overlap
     ethr =  1.54E-11,  avg # of iterations =  1.1

     total cpu time spent up to now is     3315.4 secs

     total energy              =   -2038.17446252 Ry
     estimated scf accuracy    <       0.00000002 Ry

     total magnetization       =    -0.00 Bohr mag/cell
     absolute magnetization    =     0.01 Bohr mag/cell

     iteration # 84     ecut=    90.00 Ry     beta= 0.20
     Davidson diagonalization with overlap
     ethr =  1.54E-11,  avg # of iterations =  1.0

     Magnetic moment per site:
     atom:    1    charge:   12.8877    magn:    0.0000    constr:    0.0000
     atom:    2    charge:   15.2184    magn:    0.0006    constr:    0.0000
     atom:    3    charge:   12.8878    magn:   -0.0005    constr:    0.0000
     atom:    4    charge:   15.2183    magn:    0.0002    constr:    0.0000
     atom:    5    charge:   12.8878    magn:    0.0002    constr:    0.0000
     atom:    6    charge:   15.2183    magn:   -0.0006    constr:    0.0000
     atom:    7    charge:   12.8878    magn:   -0.0003    constr:    0.0000
     atom:    8    charge:   15.2184    magn:   -0.0005    constr:    0.0000

     total cpu time spent up to now is     3353.3 secs

     End of self-consistent calculation

     Number of k-points >= 100: set verbosity='high' to print the bands.

     the Fermi energy is    17.3812 ev

!    total energy              =   -2038.17446252 Ry
     estimated scf accuracy    <          7.5E-09 Ry
     smearing contrib. (-TS)   =      -0.01727041 Ry
     internal energy E=F+TS    =   -2038.15719211 Ry

     The total energy is F=E-TS. E is the sum of the following terms:
     one-electron contribution =   -1052.28593726 Ry
     hartree contribution      =     598.69227657 Ry
     xc contribution           =    -236.51731285 Ry
     ewald contribution        =   -1348.04621857 Ry

     total magnetization       =    -0.00 Bohr mag/cell
     absolute magnetization    =     0.01 Bohr mag/cell

     convergence has been achieved in  84 iterations

     Forces acting on atoms (cartesian axes, Ry/au):

     atom    1 type  1   force =     0.00137324    0.00006925    0.00111574
     atom    2 type  2   force =     0.00104627   -0.00006432   -0.00058294
     atom    3 type  1   force =     0.00137304    0.00006936    0.00111570
     atom    4 type  2   force =     0.00104686   -0.00006422   -0.00058337
     atom    5 type  1   force =    -0.00112563   -0.00002636   -0.00082108
     atom    6 type  2   force =    -0.00129395    0.00002130    0.00028882
     atom    7 type  1   force =    -0.00112545   -0.00002639   -0.00082204
     atom    8 type  2   force =    -0.00129438    0.00002138    0.00028916

     Total force =     0.004068     Total SCF correction =     0.000011


     Computing stress (Cartesian axis) and pressure

          total   stress  (Ry/bohr**3)                   (kbar)     P=       -1.12
  -0.00000787   0.00000005   0.00000071           -1.16        0.01        0.10
   0.00000005  -0.00000728   0.00000857            0.01       -1.07        1.26
   0.00000071   0.00000857  -0.00000764            0.10        1.26       -1.12


     BFGS Geometry Optimization
     Energy error            =      0.0E+00
     Gradient error          =      1.4E-03

     number of scf cycles    =   1
     number of bfgs steps    =   0

     energy   new            =   -2038.1744625242 Ry

     new trust radius        =       0.0017707259 bohr
     new conv_thr            =       0.0000000100 Ry


ATOMIC_POSITIONS (angstrom)
Mn            0.0057745552        2.2853271935        0.0067270142
Co            2.2913209340        0.0098505614        2.2885182714
Mn            0.0057740824        0.0102597847        2.2932278990
Co            2.2913260832        2.2849178552        0.0020152511
Mn            2.2771063741       -0.0022585487       -0.0095448486
Co           -0.0008411334        2.2965799733        2.2906220188
Mn            2.2771045028        2.2956736321        2.2769507325
Co           -0.0008518732       -0.0013527126        0.0041216264



     Writing output data file ./pwscf.save/
     NEW-OLD atomic charge density approx. for the potential

     Check: negative core charge=   -0.000017
     Generating pointlists ...

     total cpu time spent up to now is     3379.9 secs

     Self-consistent Calculation

     iteration #  1     ecut=    90.00 Ry     beta= 0.20
     Davidson diagonalization with overlap
     ethr =  1.00E-06,  avg # of iterations =  3.0

     Threshold (ethr) on eigenvalues was too large:
     Diagonalizing with lowered threshold

     Davidson diagonalization with overlap
     ethr =  6.50E-09,  avg # of iterations =  4.1

     total cpu time spent up to now is     3512.6 secs

     total energy              =   -2038.17447761 Ry
     estimated scf accuracy    <       0.00000804 Ry

     total magnetization       =    -0.00 Bohr mag/cell
     absolute magnetization    =     0.01 Bohr mag/cell

     iteration #  2     ecut=    90.00 Ry     beta= 0.20
     Davidson diagonalization with overlap
     ethr =  6.28E-09,  avg # of iterations =  3.7

     total cpu time spent up to now is     3565.5 secs

     total energy              =   -2038.17446684 Ry
     estimated scf accuracy    <       0.00081727 Ry

     total magnetization       =    -0.00 Bohr mag/cell
     absolute magnetization    =     0.01 Bohr mag/cell

     iteration #  3     ecut=    90.00 Ry     beta= 0.20
     Davidson diagonalization with overlap
     ethr =  6.28E-09,  avg # of iterations =  3.2

     total cpu time spent up to now is     3614.1 secs

     total energy              =   -2038.17447990 Ry
     estimated scf accuracy    <       0.00000198 Ry

     total magnetization       =    -0.00 Bohr mag/cell
     absolute magnetization    =     0.01 Bohr mag/cell

     iteration #  4     ecut=    90.00 Ry     beta= 0.20
     Davidson diagonalization with overlap
     ethr =  1.55E-09,  avg # of iterations =  1.5

     total cpu time spent up to now is     3655.4 secs

     total energy              =   -2038.17447996 Ry
     estimated scf accuracy    <       0.00000127 Ry

     total magnetization       =    -0.00 Bohr mag/cell
     absolute magnetization    =     0.01 Bohr mag/cell

     iteration #  5     ecut=    90.00 Ry     beta= 0.20
     Davidson diagonalization with overlap
     ethr =  9.92E-10,  avg # of iterations =  1.2

     total cpu time spent up to now is     3694.9 secs

     total energy              =   -2038.17447996 Ry
     estimated scf accuracy    <       0.00000256 Ry

     total magnetization       =    -0.00 Bohr mag/cell
     absolute magnetization    =     0.01 Bohr mag/cell

     iteration #  6     ecut=    90.00 Ry     beta= 0.20
     Davidson diagonalization with overlap
     ethr =  9.92E-10,  avg # of iterations =  1.0

     total cpu time spent up to now is     3733.3 secs

     total energy              =   -2038.17448001 Ry
     estimated scf accuracy    <       0.00000128 Ry

     total magnetization       =    -0.00 Bohr mag/cell
     absolute magnetization    =     0.01 Bohr mag/cell

     iteration #  7     ecut=    90.00 Ry     beta= 0.20
     Davidson diagonalization with overlap
     ethr =  9.92E-10,  avg # of iterations =  1.0

     total cpu time spent up to now is     3771.7 secs

     total energy              =   -2038.17448006 Ry
     estimated scf accuracy    <       0.00000023 Ry

     total magnetization       =    -0.00 Bohr mag/cell
     absolute magnetization    =     0.01 Bohr mag/cell

     iteration #  8     ecut=    90.00 Ry     beta= 0.20
     Davidson diagonalization with overlap
     ethr =  1.81E-10,  avg # of iterations =  1.0

     total cpu time spent up to now is     3810.2 secs

     total energy              =   -2038.17448005 Ry
     estimated scf accuracy    <       0.00000015 Ry

     total magnetization       =    -0.01 Bohr mag/cell
     absolute magnetization    =     0.01 Bohr mag/cell

     iteration #  9     ecut=    90.00 Ry     beta= 0.20
     Davidson diagonalization with overlap
     ethr =  1.15E-10,  avg # of iterations =  1.0

     total cpu time spent up to now is     3848.7 secs

     total energy              =   -2038.17448003 Ry
     estimated scf accuracy    <       0.00000035 Ry

     total magnetization       =    -0.00 Bohr mag/cell
     absolute magnetization    =     0.01 Bohr mag/cell

     iteration # 10     ecut=    90.00 Ry     beta= 0.20
     Davidson diagonalization with overlap
     ethr =  1.15E-10,  avg # of iterations =  1.0

     total cpu time spent up to now is     3887.2 secs

     total energy              =   -2038.17448003 Ry
     estimated scf accuracy    <       0.00000039 Ry

     total magnetization       =    -0.00 Bohr mag/cell
     absolute magnetization    =     0.01 Bohr mag/cell

     iteration # 11     ecut=    90.00 Ry     beta= 0.20
     Davidson diagonalization with overlap
     ethr =  1.15E-10,  avg # of iterations =  1.0

     total cpu time spent up to now is     3925.8 secs

     total energy              =   -2038.17447999 Ry
     estimated scf accuracy    <       0.00000092 Ry

     total magnetization       =    -0.00 Bohr mag/cell
     absolute magnetization    =     0.01 Bohr mag/cell

     iteration # 12     ecut=    90.00 Ry     beta= 0.20
     Davidson diagonalization with overlap
     ethr =  1.15E-10,  avg # of iterations =  1.0

     total cpu time spent up to now is     3964.3 secs

     total energy              =   -2038.17447999 Ry
     estimated scf accuracy    <       0.00000020 Ry

     total magnetization       =    -0.00 Bohr mag/cell
     absolute magnetization    =     0.01 Bohr mag/cell

     iteration # 13     ecut=    90.00 Ry     beta= 0.20
     Davidson diagonalization with overlap
     ethr =  1.15E-10,  avg # of iterations =  1.1

     total cpu time spent up to now is     4003.2 secs

     total energy              =   -2038.17448001 Ry
     estimated scf accuracy    <       0.00000002 Ry

     total magnetization       =     0.00 Bohr mag/cell
     absolute magnetization    =     0.01 Bohr mag/cell

     iteration # 14     ecut=    90.00 Ry     beta= 0.20
     Davidson diagonalization with overlap
     ethr =  1.27E-11,  avg # of iterations =  2.6

     total cpu time spent up to now is     4053.5 secs

     total energy              =   -2038.17448001 Ry
     estimated scf accuracy    <       0.00000012 Ry

     total magnetization       =     0.00 Bohr mag/cell
     absolute magnetization    =     0.01 Bohr mag/cell

     iteration # 15     ecut=    90.00 Ry     beta= 0.20
     Davidson diagonalization with overlap
     ethr =  1.27E-11,  avg # of iterations =  1.0

     Magnetic moment per site:
     atom:    1    charge:   12.8877    magn:    0.0005    constr:    0.0000
     atom:    2    charge:   15.2183    magn:    0.0007    constr:    0.0000
     atom:    3    charge:   12.8877    magn:   -0.0002    constr:    0.0000
     atom:    4    charge:   15.2184    magn:    0.0003    constr:    0.0000
     atom:    5    charge:   12.8878    magn:    0.0006    constr:    0.0000
     atom:    6    charge:   15.2183    magn:   -0.0003    constr:    0.0000
     atom:    7    charge:   12.8878    magn:    0.0001    constr:    0.0000
     atom:    8    charge:   15.2183    magn:   -0.0006    constr:    0.0000

     total cpu time spent up to now is     4092.1 secs

     End of self-consistent calculation

     Number of k-points >= 100: set verbosity='high' to print the bands.

     the Fermi energy is    17.3812 ev

!    total energy              =   -2038.17448002 Ry
     estimated scf accuracy    <          8.1E-09 Ry
     smearing contrib. (-TS)   =      -0.01726958 Ry
     internal energy E=F+TS    =   -2038.15721043 Ry

     The total energy is F=E-TS. E is the sum of the following terms:
     one-electron contribution =   -1052.28476987 Ry
     hartree contribution      =     598.69158855 Ry
     xc contribution           =    -236.51727953 Ry
     ewald contribution        =   -1348.04674958 Ry

     total magnetization       =     0.00 Bohr mag/cell
     absolute magnetization    =     0.01 Bohr mag/cell

     convergence has been achieved in  15 iterations

     Forces acting on atoms (cartesian axes, Ry/au):

     atom    1 type  1   force =     0.00155523    0.00007138    0.00118483
     atom    2 type  2   force =     0.00109469   -0.00006483   -0.00059551
     atom    3 type  1   force =     0.00155577    0.00007148    0.00118556
     atom    4 type  2   force =     0.00108499   -0.00006448   -0.00059378
     atom    5 type  1   force =    -0.00131087   -0.00003014   -0.00089363
     atom    6 type  2   force =    -0.00133392    0.00002342    0.00030397
     atom    7 type  1   force =    -0.00131009   -0.00003014   -0.00089414
     atom    8 type  2   force =    -0.00133580    0.00002330    0.00030269

     Total force =     0.004420     Total SCF correction =     0.000400


     Computing stress (Cartesian axis) and pressure

          total   stress  (Ry/bohr**3)                   (kbar)     P=       -1.17
  -0.00000827   0.00000006   0.00000087           -1.22        0.01        0.13
   0.00000006  -0.00000762   0.00000858            0.01       -1.12        1.26
   0.00000087   0.00000858  -0.00000801            0.13        1.26       -1.18

     Energy error            =      1.6E-04
     Gradient error          =      1.6E-03

     number of scf cycles    =   2
     number of bfgs steps    =   1

     energy   old            =   -2038.1743183622 Ry
     energy   new            =   -2038.1744800158 Ry

     CASE: energy  _new < energy  _old


     WARNING: bfgs curvature condition failed, Theta= 0.753
     new trust radius        =       0.0019442860 bohr
     new conv_thr            =       0.0000000016 Ry


ATOMIC_POSITIONS (angstrom)
Mn            0.0063911520        2.2852808493        0.0075489147
Co            2.2918321980        0.0094575497        2.2884770982
Mn            0.0063911144        0.0102127938        2.2940498726
Co            2.2918332837        2.2845233934        0.0019740723
Mn            2.2761952796       -0.0022022390       -0.0099044648
Co           -0.0009710782        2.2963592926        2.2910073105
Mn            2.2761934119        2.2957303021        2.2765909271
Co           -0.0009830769       -0.0015721179        0.0045070040



     Writing output data file ./pwscf.save/
     NEW-OLD atomic charge density approx. for the potential

     Check: negative core charge=   -0.000017
     Generating pointlists ...

     total cpu time spent up to now is     4118.8 secs

     Self-consistent Calculation

     iteration #  1     ecut=    90.00 Ry     beta= 0.20
     Davidson diagonalization with overlap
     ethr =  1.00E-06,  avg # of iterations =  3.3

     Threshold (ethr) on eigenvalues was too large:
     Diagonalizing with lowered threshold

     Davidson diagonalization with overlap
     ethr =  2.54E-09,  avg # of iterations =  5.2

     total cpu time spent up to now is     4262.6 secs

     total energy              =   -2038.17449689 Ry
     estimated scf accuracy    <       0.00000316 Ry

     total magnetization       =     0.00 Bohr mag/cell
     absolute magnetization    =     0.01 Bohr mag/cell

     iteration #  2     ecut=    90.00 Ry     beta= 0.20
     Davidson diagonalization with overlap
     ethr =  2.47E-09,  avg # of iterations =  2.6

     total cpu time spent up to now is     4310.7 secs

     total energy              =   -2038.17449483 Ry
     estimated scf accuracy    <       0.00014373 Ry

     total magnetization       =     0.00 Bohr mag/cell
     absolute magnetization    =     0.01 Bohr mag/cell

     iteration #  3     ecut=    90.00 Ry     beta= 0.20
     Davidson diagonalization with overlap
     ethr =  2.47E-09,  avg # of iterations =  2.0

     total cpu time spent up to now is     4353.0 secs

     total energy              =   -2038.17449727 Ry
     estimated scf accuracy    <       0.00000380 Ry

     total magnetization       =     0.00 Bohr mag/cell
     absolute magnetization    =     0.01 Bohr mag/cell

     iteration #  4     ecut=    90.00 Ry     beta= 0.20
     Davidson diagonalization with overlap
     ethr =  2.47E-09,  avg # of iterations =  1.0

     total cpu time spent up to now is     4391.4 secs

     total energy              =   -2038.17449734 Ry
     estimated scf accuracy    <       0.00000279 Ry

     total magnetization       =     0.00 Bohr mag/cell
     absolute magnetization    =     0.01 Bohr mag/cell

     iteration #  5     ecut=    90.00 Ry     beta= 0.20
     Davidson diagonalization with overlap
     ethr =  2.18E-09,  avg # of iterations =  1.0

     total cpu time spent up to now is     4429.8 secs

     total energy              =   -2038.17449739 Ry
     estimated scf accuracy    <       0.00000247 Ry

     total magnetization       =     0.01 Bohr mag/cell
     absolute magnetization    =     0.01 Bohr mag/cell

     iteration #  6     ecut=    90.00 Ry     beta= 0.20
     Davidson diagonalization with overlap
     ethr =  1.93E-09,  avg # of iterations =  1.0

     total cpu time spent up to now is     4468.2 secs

     total energy              =   -2038.17449747 Ry
     estimated scf accuracy    <       0.00000050 Ry

     total magnetization       =     0.01 Bohr mag/cell
     absolute magnetization    =     0.01 Bohr mag/cell

     iteration #  7     ecut=    90.00 Ry     beta= 0.20
     Davidson diagonalization with overlap
     ethr =  3.88E-10,  avg # of iterations =  1.0

     total cpu time spent up to now is     4506.8 secs

     total energy              =   -2038.17449752 Ry
     estimated scf accuracy    <       0.00000093 Ry

     total magnetization       =     0.01 Bohr mag/cell
     absolute magnetization    =     0.01 Bohr mag/cell

     iteration #  8     ecut=    90.00 Ry     beta= 0.20
     Davidson diagonalization with overlap
     ethr =  3.88E-10,  avg # of iterations =  1.0

     total cpu time spent up to now is     4545.3 secs

     total energy              =   -2038.17449746 Ry
     estimated scf accuracy    <       0.00000022 Ry

     total magnetization       =     0.01 Bohr mag/cell
     absolute magnetization    =     0.01 Bohr mag/cell

     iteration #  9     ecut=    90.00 Ry     beta= 0.20
     Davidson diagonalization with overlap
     ethr =  1.75E-10,  avg # of iterations =  1.0

     total cpu time spent up to now is     4583.8 secs

     total energy              =   -2038.17449745 Ry
     estimated scf accuracy    <       0.00000072 Ry

     total magnetization       =     0.01 Bohr mag/cell
     absolute magnetization    =     0.01 Bohr mag/cell

     iteration # 10     ecut=    90.00 Ry     beta= 0.20
     Davidson diagonalization with overlap
     ethr =  1.75E-10,  avg # of iterations =  1.0

     total cpu time spent up to now is     4622.4 secs

     total energy              =   -2038.17449742 Ry
     estimated scf accuracy    <       0.00000054 Ry

     total magnetization       =     0.00 Bohr mag/cell
     absolute magnetization    =     0.01 Bohr mag/cell

     iteration # 11     ecut=    90.00 Ry     beta= 0.20
     Davidson diagonalization with overlap
     ethr =  1.75E-10,  avg # of iterations =  1.0

     total cpu time spent up to now is     4661.0 secs

     total energy              =   -2038.17449741 Ry
     estimated scf accuracy    <       0.00000108 Ry

     total magnetization       =     0.00 Bohr mag/cell
     absolute magnetization    =     0.01 Bohr mag/cell

     iteration # 12     ecut=    90.00 Ry     beta= 0.20
     Davidson diagonalization with overlap
     ethr =  1.75E-10,  avg # of iterations =  1.3

     total cpu time spent up to now is     4701.1 secs

     total energy              =   -2038.17449737 Ry
     estimated scf accuracy    <       0.00000170 Ry

     total magnetization       =     0.00 Bohr mag/cell
     absolute magnetization    =     0.01 Bohr mag/cell

     iteration # 13     ecut=    90.00 Ry     beta= 0.20
     Davidson diagonalization with overlap
     ethr =  1.75E-10,  avg # of iterations =  1.0

     total cpu time spent up to now is     4739.8 secs

     total energy              =   -2038.17449743 Ry
     estimated scf accuracy    <       0.00000003 Ry

     total magnetization       =    -0.00 Bohr mag/cell
     absolute magnetization    =     0.01 Bohr mag/cell

     iteration # 14     ecut=    90.00 Ry     beta= 0.20
     Davidson diagonalization with overlap
     ethr =  2.42E-11,  avg # of iterations =  2.0
