 # File generated with Atomsk by kevin on 2022-03-20 17:48:00
 
           8  atoms
           2  atom types
 
      0.000000000000       4.573000000000  xlo xhi
      0.000000000000       4.595865000000  ylo yhi
      0.000000000000       4.573000000000  zlo zhi
 
Masses
 
            1   58.93319500             # Co
            2   0.00000000              # XX
 
Atoms # atomic
 
         1    1       -0.005142369046      -0.000909181395      -0.006897663264
         2    4        2.291959200379       2.289350995162       2.283840494681
         3    1       -0.005142369046       2.297023318605       2.279602336736
         4    4        2.291959200379      -0.008581504838      -0.002659505319
         5    1        2.281357630954       2.297023318605      -0.006897663264
         6    4       -0.005142369046      -0.000909181395       2.279602336736
         7    1        2.281357630954      -0.000909181395       2.279602336736
         8    4       -0.005142369046       2.297023318605      -0.006897663264
