
     Program PWSCF v.6.7MaX starts on 22Mar2022 at 12:55:31 

     This program is part of the open-source Quantum ESPRESSO suite
     for quantum simulation of materials; please cite
         "P. Giannozzi et al., J. Phys.:Condens. Matter 21 395502 (2009);
         "P. Giannozzi et al., J. Phys.:Condens. Matter 29 465901 (2017);
          URL http://www.quantum-espresso.org", 
     in publications or presentations arising from this work. More details at
     http://www.quantum-espresso.org/quote

     Parallel version (MPI), running on    24 processors

     MPI processes distributed on     1 nodes
     R & G space division:  proc/nbgrp/npool/nimage =      24
     Reading input from /home/kevin/QE_CoCrFeMnNi/CoCrFeMnNi/Opt/binary/Opt-B1-CoMn/Mix/elastic/Chg_3-B1-CoMn.in

     Current dimensions of program PWSCF are:
     Max number of different atomic species (ntypx) = 10
     Max number of k-points (npk) =  40000
     Max angular momentum in pseudopotentials (lmaxx) =  3

     Subspace diagonalization in iterative solution of the eigenvalue problem:
     a serial algorithm will be used

     Found symmetry operation: I + ( -0.0000 -0.5000 -0.5000)
     This is a supercell, fractional translations are disabled

     Parallelization info
     --------------------
     sticks:   dense  smooth     PW     G-vecs:    dense   smooth      PW
     Min         267      89     24                16197     3115     467
     Max         268      90     26                16199     3118     473
     Sum        6417    2145    601               388739    74781   11283



     bravais-lattice index     =            0
     lattice parameter (alat)  =       8.6417  a.u.
     unit-cell volume          =     648.5841 (a.u.)^3
     number of atoms/cell      =            8
     number of atomic types    =            2
     number of electrons       =       128.00
     number of Kohn-Sham states=           77
     kinetic-energy cutoff     =      90.0000  Ry
     charge density cutoff     =    1080.0000  Ry
     scf convergence threshold =      1.0E-08
     mixing beta               =       0.2000
     number of iterations used =            8  plain     mixing
     energy convergence thresh.=      1.0E-05
     force convergence thresh. =      1.0E-04
     Exchange-correlation= SLA  PW   PBE  PBE
                           (   1   4   3   4   0   0   0)
     nstep                     =          100


     celldm(1)=   8.641718  celldm(2)=   0.000000  celldm(3)=   0.000000
     celldm(4)=   0.000000  celldm(5)=   0.000000  celldm(6)=   0.000000

     crystal axes: (cart. coord. in units of alat)
               a(1) = (   1.000000   0.000000   0.000000 )  
               a(2) = (   0.000000   1.000000   0.000000 )  
               a(3) = (   0.000000   0.000000   1.005000 )  

     reciprocal axes: (cart. coord. in units 2 pi/alat)
               b(1) = (  1.000000  0.000000  0.000000 )  
               b(2) = (  0.000000  1.000000  0.000000 )  
               b(3) = (  0.000000  0.000000  0.995025 )  


     PseudoPot. # 1 for Mn read from file:
     /opt/QEpot/SSSP_efficiency_pseudos/mn_pbe_v1.5.uspp.F.UPF
     MD5 check sum: 82ef2b46521d7a7d9e736dc3972e4928
     Pseudo is Ultrasoft + core correction, Zval = 15.0
     Generated by new atomic code, or converted to UPF format
     Using radial grid of  859 points,  6 beta functions with: 
                l(1) =   0
                l(2) =   0
                l(3) =   1
                l(4) =   1
                l(5) =   2
                l(6) =   2
     Q(r) pseudized with  8 coefficients,  rinner =    0.950   0.950   0.950
                                                       0.950   0.950

     PseudoPot. # 2 for Co read from file:
     /opt/QEpot/SSSP_efficiency_pseudos/Co_pbe_v1.2.uspp.F.UPF
     MD5 check sum: 5f91765df6ddd3222702df6e7b74a16d
     Pseudo is Ultrasoft + core correction, Zval = 17.0
     Generated by new atomic code, or converted to UPF format
     Using radial grid of  863 points,  6 beta functions with: 
                l(1) =   0
                l(2) =   0
                l(3) =   1
                l(4) =   1
                l(5) =   2
                l(6) =   2
     Q(r) pseudized with  8 coefficients,  rinner =    1.200   1.200   1.200
                                                       1.200   1.200

     atomic species   valence    mass     pseudopotential
        Mn            15.00    54.93800     Mn( 1.00)
        Co            17.00    58.93300     Co( 1.00)

     Starting magnetic structure 
     atomic species   magnetization
        Mn           0.000
        Co           0.000

     No symmetry found



   Cartesian axes

     site n.     atom                  positions (alat units)
         1           Mn  tau(   1) = (  -0.0011475   0.5016698  -0.0006752  )
         2           Co  tau(   2) = (   0.4989557   0.0012696   0.5016717  )
         3           Mn  tau(   3) = (  -0.0011475   0.0016698   0.5018248  )
         4           Co  tau(   4) = (   0.4989553   0.5012695  -0.0008283  )
         5           Mn  tau(   5) = (   0.5023267  -0.0019606  -0.0020952  )
         6           Co  tau(   6) = (  -0.0005862   0.5014400   0.5017437  )
         7           Mn  tau(   7) = (   0.5023268   0.4980394   0.5004048  )
         8           Co  tau(   8) = (  -0.0005862   0.0014398  -0.0007564  )

     number of k points=   112  Gaussian smearing, width (Ry)=  0.0100

     Number of k-points >= 100: set verbosity='high' to print them.

     Dense  grid:   388739 G-vectors     FFT dimensions: (  96,  96,  96)

     Smooth grid:    74781 G-vectors     FFT dimensions: (  54,  54,  54)

     Estimated max dynamical RAM per process >     175.02 MB

     Estimated total dynamical RAM >       4.10 GB

     Check: negative core charge=   -0.000017
     Generating pointlists ...
     new r_m :   0.2049 (alat units)  1.7709 (a.u.) for type    1
     new r_m :   0.2049 (alat units)  1.7709 (a.u.) for type    2

     Initial potential from superposition of free atoms

     starting charge  121.99963, renormalised to  128.00000
     Starting wfcs are  104 randomized atomic wfcs

     total cpu time spent up to now is       21.2 secs

     Self-consistent Calculation

     iteration #  1     ecut=    90.00 Ry     beta= 0.20
     Davidson diagonalization with overlap
     ethr =  1.00E-02,  avg # of iterations =  2.6

     total cpu time spent up to now is       74.7 secs

     total energy              =   -2028.97421775 Ry
     estimated scf accuracy    <      50.68836456 Ry

     total magnetization       =    -0.00 Bohr mag/cell
     absolute magnetization    =     0.01 Bohr mag/cell

     iteration #  2     ecut=    90.00 Ry     beta= 0.20
     Davidson diagonalization with overlap
     ethr =  1.00E-02,  avg # of iterations =  4.1

     total cpu time spent up to now is      144.3 secs

     total energy              =   -2036.05144424 Ry
     estimated scf accuracy    <      52.04594406 Ry

     total magnetization       =    -0.00 Bohr mag/cell
     absolute magnetization    =     0.01 Bohr mag/cell

     iteration #  3     ecut=    90.00 Ry     beta= 0.20
     Davidson diagonalization with overlap
     ethr =  1.00E-02,  avg # of iterations =  2.6

     total cpu time spent up to now is      193.2 secs

     total energy              =   -2035.96482838 Ry
     estimated scf accuracy    <       5.36294700 Ry

     total magnetization       =     0.00 Bohr mag/cell
     absolute magnetization    =     0.04 Bohr mag/cell

     iteration #  4     ecut=    90.00 Ry     beta= 0.20
     Davidson diagonalization with overlap
     ethr =  4.19E-03,  avg # of iterations =  4.8

     total cpu time spent up to now is      260.5 secs

     total energy              =   -2034.36670012 Ry
     estimated scf accuracy    <      73.06883803 Ry

     total magnetization       =     0.01 Bohr mag/cell
     absolute magnetization    =     0.01 Bohr mag/cell

     iteration #  5     ecut=    90.00 Ry     beta= 0.20
     Davidson diagonalization with overlap
     ethr =  4.19E-03,  avg # of iterations =  3.6

     total cpu time spent up to now is      312.9 secs

     total energy              =   -2038.24343353 Ry
     estimated scf accuracy    <       1.65794141 Ry

     total magnetization       =     0.01 Bohr mag/cell
     absolute magnetization    =     0.04 Bohr mag/cell

     iteration #  6     ecut=    90.00 Ry     beta= 0.20
     Davidson diagonalization with overlap
     ethr =  1.30E-03,  avg # of iterations =  3.1

     total cpu time spent up to now is      360.2 secs

     total energy              =   -2038.26947264 Ry
     estimated scf accuracy    <       2.79916968 Ry

     total magnetization       =    -0.00 Bohr mag/cell
     absolute magnetization    =     0.01 Bohr mag/cell

     iteration #  7     ecut=    90.00 Ry     beta= 0.20
     Davidson diagonalization with overlap
     ethr =  1.30E-03,  avg # of iterations =  1.0

     total cpu time spent up to now is      398.9 secs

     total energy              =   -2038.23644597 Ry
     estimated scf accuracy    <       2.46069564 Ry

     total magnetization       =    -0.00 Bohr mag/cell
     absolute magnetization    =     0.01 Bohr mag/cell

     iteration #  8     ecut=    90.00 Ry     beta= 0.20
     Davidson diagonalization with overlap
     ethr =  1.30E-03,  avg # of iterations =  1.1

     total cpu time spent up to now is      437.8 secs

     total energy              =   -2038.18105627 Ry
     estimated scf accuracy    <       1.59357099 Ry

     total magnetization       =    -0.00 Bohr mag/cell
     absolute magnetization    =     0.02 Bohr mag/cell

     iteration #  9     ecut=    90.00 Ry     beta= 0.20
     Davidson diagonalization with overlap
     ethr =  1.24E-03,  avg # of iterations =  1.0

     total cpu time spent up to now is      476.4 secs

     total energy              =   -2038.15977944 Ry
     estimated scf accuracy    <       0.64653173 Ry

     total magnetization       =     0.00 Bohr mag/cell
     absolute magnetization    =     0.02 Bohr mag/cell

     iteration # 10     ecut=    90.00 Ry     beta= 0.20
     Davidson diagonalization with overlap
     ethr =  5.05E-04,  avg # of iterations =  1.1

     total cpu time spent up to now is      515.1 secs

     total energy              =   -2038.17654539 Ry
     estimated scf accuracy    <       0.02243866 Ry

     total magnetization       =     0.00 Bohr mag/cell
     absolute magnetization    =     0.02 Bohr mag/cell

     iteration # 11     ecut=    90.00 Ry     beta= 0.20
     Davidson diagonalization with overlap
     ethr =  1.75E-05,  avg # of iterations =  2.5

     total cpu time spent up to now is      560.5 secs

     total energy              =   -2038.16931182 Ry
     estimated scf accuracy    <       0.08502043 Ry

     total magnetization       =     0.00 Bohr mag/cell
     absolute magnetization    =     0.02 Bohr mag/cell

     iteration # 12     ecut=    90.00 Ry     beta= 0.20
     Davidson diagonalization with overlap
     ethr =  1.75E-05,  avg # of iterations =  2.3

     total cpu time spent up to now is      606.4 secs

     total energy              =   -2038.17402777 Ry
     estimated scf accuracy    <       0.00848422 Ry

     total magnetization       =     0.00 Bohr mag/cell
     absolute magnetization    =     0.02 Bohr mag/cell

     iteration # 13     ecut=    90.00 Ry     beta= 0.20
     Davidson diagonalization with overlap
     ethr =  6.63E-06,  avg # of iterations =  1.3

     total cpu time spent up to now is      645.9 secs

     total energy              =   -2038.17426343 Ry
     estimated scf accuracy    <       0.00079509 Ry

     total magnetization       =     0.00 Bohr mag/cell
     absolute magnetization    =     0.02 Bohr mag/cell

     iteration # 14     ecut=    90.00 Ry     beta= 0.20
     Davidson diagonalization with overlap
     ethr =  6.21E-07,  avg # of iterations =  4.1

     total cpu time spent up to now is      708.3 secs

     total energy              =   -2038.17361629 Ry
     estimated scf accuracy    <       0.01943668 Ry

     total magnetization       =     0.01 Bohr mag/cell
     absolute magnetization    =     0.03 Bohr mag/cell

     iteration # 15     ecut=    90.00 Ry     beta= 0.20
     Davidson diagonalization with overlap
     ethr =  6.21E-07,  avg # of iterations =  3.1

     total cpu time spent up to now is      759.5 secs

     total energy              =   -2038.17428705 Ry
     estimated scf accuracy    <       0.00099608 Ry

     total magnetization       =     0.01 Bohr mag/cell
     absolute magnetization    =     0.03 Bohr mag/cell

     iteration # 16     ecut=    90.00 Ry     beta= 0.20
     Davidson diagonalization with overlap
     ethr =  6.21E-07,  avg # of iterations =  1.0

     total cpu time spent up to now is      798.1 secs

     total energy              =   -2038.17428236 Ry
     estimated scf accuracy    <       0.00134763 Ry

     total magnetization       =     0.01 Bohr mag/cell
     absolute magnetization    =     0.03 Bohr mag/cell

     iteration # 17     ecut=    90.00 Ry     beta= 0.20
     Davidson diagonalization with overlap
     ethr =  6.21E-07,  avg # of iterations =  1.0

     total cpu time spent up to now is      836.8 secs

     total energy              =   -2038.17428862 Ry
     estimated scf accuracy    <       0.00113499 Ry

     total magnetization       =     0.01 Bohr mag/cell
     absolute magnetization    =     0.04 Bohr mag/cell

     iteration # 18     ecut=    90.00 Ry     beta= 0.20
     Davidson diagonalization with overlap
     ethr =  6.21E-07,  avg # of iterations =  1.0

     total cpu time spent up to now is      875.3 secs

     total energy              =   -2038.17429816 Ry
     estimated scf accuracy    <       0.00015569 Ry

     total magnetization       =     0.01 Bohr mag/cell
     absolute magnetization    =     0.04 Bohr mag/cell

     iteration # 19     ecut=    90.00 Ry     beta= 0.20
     Davidson diagonalization with overlap
     ethr =  1.22E-07,  avg # of iterations =  1.3

     total cpu time spent up to now is      915.2 secs

     total energy              =   -2038.17427124 Ry
     estimated scf accuracy    <       0.00177646 Ry

     total magnetization       =     0.01 Bohr mag/cell
     absolute magnetization    =     0.05 Bohr mag/cell

     iteration # 20     ecut=    90.00 Ry     beta= 0.20
     Davidson diagonalization with overlap
     ethr =  1.22E-07,  avg # of iterations =  1.2

     total cpu time spent up to now is      954.7 secs

     total energy              =   -2038.17427886 Ry
     estimated scf accuracy    <       0.00132542 Ry

     total magnetization       =     0.02 Bohr mag/cell
     absolute magnetization    =     0.05 Bohr mag/cell

     iteration # 21     ecut=    90.00 Ry     beta= 0.20
     Davidson diagonalization with overlap
     ethr =  1.22E-07,  avg # of iterations =  1.0

     total cpu time spent up to now is      993.2 secs

     total energy              =   -2038.17430396 Ry
     estimated scf accuracy    <       0.00009724 Ry

     total magnetization       =     0.02 Bohr mag/cell
     absolute magnetization    =     0.07 Bohr mag/cell

     iteration # 22     ecut=    90.00 Ry     beta= 0.20
     Davidson diagonalization with overlap
     ethr =  7.60E-08,  avg # of iterations =  1.0

     total cpu time spent up to now is     1031.7 secs

     total energy              =   -2038.17430438 Ry
     estimated scf accuracy    <       0.00020779 Ry

     total magnetization       =     0.03 Bohr mag/cell
     absolute magnetization    =     0.08 Bohr mag/cell

     iteration # 23     ecut=    90.00 Ry     beta= 0.20
     Davidson diagonalization with overlap
     ethr =  7.60E-08,  avg # of iterations =  1.0

     total cpu time spent up to now is     1070.2 secs

     total energy              =   -2038.17431271 Ry
     estimated scf accuracy    <       0.00004721 Ry

     total magnetization       =     0.03 Bohr mag/cell
     absolute magnetization    =     0.09 Bohr mag/cell

     iteration # 24     ecut=    90.00 Ry     beta= 0.20
     Davidson diagonalization with overlap
     ethr =  3.69E-08,  avg # of iterations =  1.0

     total cpu time spent up to now is     1108.7 secs

     total energy              =   -2038.17431509 Ry
     estimated scf accuracy    <       0.00002826 Ry

     total magnetization       =     0.03 Bohr mag/cell
     absolute magnetization    =     0.10 Bohr mag/cell

     iteration # 25     ecut=    90.00 Ry     beta= 0.20
     Davidson diagonalization with overlap
     ethr =  2.21E-08,  avg # of iterations =  1.0

     total cpu time spent up to now is     1147.2 secs

     total energy              =   -2038.17431546 Ry
     estimated scf accuracy    <       0.00003550 Ry

     total magnetization       =     0.04 Bohr mag/cell
     absolute magnetization    =     0.10 Bohr mag/cell

     iteration # 26     ecut=    90.00 Ry     beta= 0.20
     Davidson diagonalization with overlap
     ethr =  2.21E-08,  avg # of iterations =  1.0

     total cpu time spent up to now is     1185.7 secs

     total energy              =   -2038.17431537 Ry
     estimated scf accuracy    <       0.00003630 Ry

     total magnetization       =     0.04 Bohr mag/cell
     absolute magnetization    =     0.10 Bohr mag/cell

     iteration # 27     ecut=    90.00 Ry     beta= 0.20
     Davidson diagonalization with overlap
     ethr =  2.21E-08,  avg # of iterations =  1.0

     total cpu time spent up to now is     1224.1 secs

     total energy              =   -2038.17431599 Ry
     estimated scf accuracy    <       0.00004950 Ry

     total magnetization       =     0.04 Bohr mag/cell
     absolute magnetization    =     0.10 Bohr mag/cell

     iteration # 28     ecut=    90.00 Ry     beta= 0.20
     Davidson diagonalization with overlap
     ethr =  2.21E-08,  avg # of iterations =  1.0

     total cpu time spent up to now is     1262.5 secs

     total energy              =   -2038.17431189 Ry
     estimated scf accuracy    <       0.00004566 Ry

     total magnetization       =     0.04 Bohr mag/cell
     absolute magnetization    =     0.11 Bohr mag/cell

     iteration # 29     ecut=    90.00 Ry     beta= 0.20
     Davidson diagonalization with overlap
     ethr =  2.21E-08,  avg # of iterations =  1.0

     total cpu time spent up to now is     1301.0 secs

     total energy              =   -2038.17430722 Ry
     estimated scf accuracy    <       0.00026135 Ry

     total magnetization       =     0.03 Bohr mag/cell
     absolute magnetization    =     0.09 Bohr mag/cell

     iteration # 30     ecut=    90.00 Ry     beta= 0.20
     Davidson diagonalization with overlap
     ethr =  2.21E-08,  avg # of iterations =  1.1

     total cpu time spent up to now is     1340.2 secs

     total energy              =   -2038.17430668 Ry
     estimated scf accuracy    <       0.00025181 Ry

     total magnetization       =     0.03 Bohr mag/cell
     absolute magnetization    =     0.09 Bohr mag/cell

     iteration # 31     ecut=    90.00 Ry     beta= 0.20
     Davidson diagonalization with overlap
     ethr =  2.21E-08,  avg # of iterations =  1.0

     total cpu time spent up to now is     1378.6 secs

     total energy              =   -2038.17430698 Ry
     estimated scf accuracy    <       0.00007109 Ry

     total magnetization       =     0.03 Bohr mag/cell
     absolute magnetization    =     0.09 Bohr mag/cell

     iteration # 32     ecut=    90.00 Ry     beta= 0.20
     Davidson diagonalization with overlap
     ethr =  2.21E-08,  avg # of iterations =  1.0

     total cpu time spent up to now is     1416.9 secs

     total energy              =   -2038.17430943 Ry
     estimated scf accuracy    <       0.00003882 Ry

     total magnetization       =     0.03 Bohr mag/cell
     absolute magnetization    =     0.08 Bohr mag/cell

     iteration # 33     ecut=    90.00 Ry     beta= 0.20
     Davidson diagonalization with overlap
     ethr =  2.21E-08,  avg # of iterations =  1.0

     total cpu time spent up to now is     1455.3 secs

     total energy              =   -2038.17430923 Ry
     estimated scf accuracy    <       0.00002826 Ry

     total magnetization       =     0.03 Bohr mag/cell
     absolute magnetization    =     0.08 Bohr mag/cell

     iteration # 34     ecut=    90.00 Ry     beta= 0.20
     Davidson diagonalization with overlap
     ethr =  2.21E-08,  avg # of iterations =  1.0

     total cpu time spent up to now is     1493.7 secs

     total energy              =   -2038.17430965 Ry
     estimated scf accuracy    <       0.00002433 Ry

     total magnetization       =     0.03 Bohr mag/cell
     absolute magnetization    =     0.08 Bohr mag/cell

     iteration # 35     ecut=    90.00 Ry     beta= 0.20
     Davidson diagonalization with overlap
     ethr =  1.90E-08,  avg # of iterations =  1.0

     total cpu time spent up to now is     1532.0 secs

     total energy              =   -2038.17430948 Ry
     estimated scf accuracy    <       0.00002311 Ry

     total magnetization       =     0.03 Bohr mag/cell
     absolute magnetization    =     0.08 Bohr mag/cell

     iteration # 36     ecut=    90.00 Ry     beta= 0.20
     Davidson diagonalization with overlap
     ethr =  1.81E-08,  avg # of iterations =  1.0

     total cpu time spent up to now is     1570.4 secs

     total energy              =   -2038.17430951 Ry
     estimated scf accuracy    <       0.00007286 Ry

     total magnetization       =     0.03 Bohr mag/cell
     absolute magnetization    =     0.08 Bohr mag/cell

     iteration # 37     ecut=    90.00 Ry     beta= 0.20
     Davidson diagonalization with overlap
     ethr =  1.81E-08,  avg # of iterations =  1.0

     total cpu time spent up to now is     1608.8 secs

     total energy              =   -2038.17431374 Ry
     estimated scf accuracy    <       0.00002426 Ry

     total magnetization       =     0.03 Bohr mag/cell
     absolute magnetization    =     0.09 Bohr mag/cell

     iteration # 38     ecut=    90.00 Ry     beta= 0.20
     Davidson diagonalization with overlap
     ethr =  1.81E-08,  avg # of iterations =  1.0

     total cpu time spent up to now is     1647.1 secs

     total energy              =   -2038.17430438 Ry
     estimated scf accuracy    <       0.00002719 Ry

     total magnetization       =     0.03 Bohr mag/cell
     absolute magnetization    =     0.10 Bohr mag/cell

     iteration # 39     ecut=    90.00 Ry     beta= 0.20
     Davidson diagonalization with overlap
     ethr =  1.81E-08,  avg # of iterations =  1.3

     total cpu time spent up to now is     1687.2 secs

     total energy              =   -2038.17430137 Ry
     estimated scf accuracy    <       0.00020431 Ry

     total magnetization       =     0.02 Bohr mag/cell
     absolute magnetization    =     0.07 Bohr mag/cell

     iteration # 40     ecut=    90.00 Ry     beta= 0.20
     Davidson diagonalization with overlap
     ethr =  1.81E-08,  avg # of iterations =  1.4

     total cpu time spent up to now is     1727.5 secs

     total energy              =   -2038.17429307 Ry
     estimated scf accuracy    <       0.00025247 Ry

     total magnetization       =     0.02 Bohr mag/cell
     absolute magnetization    =     0.07 Bohr mag/cell

     iteration # 41     ecut=    90.00 Ry     beta= 0.20
     Davidson diagonalization with overlap
     ethr =  1.81E-08,  avg # of iterations =  1.2

     total cpu time spent up to now is     1767.1 secs

     total energy              =   -2038.17429507 Ry
     estimated scf accuracy    <       0.00001755 Ry

     total magnetization       =     0.01 Bohr mag/cell
     absolute magnetization    =     0.04 Bohr mag/cell

     iteration # 42     ecut=    90.00 Ry     beta= 0.20
     Davidson diagonalization with overlap
     ethr =  1.37E-08,  avg # of iterations =  2.1

     total cpu time spent up to now is     1810.3 secs

     total energy              =   -2038.17429870 Ry
     estimated scf accuracy    <       0.00000058 Ry

     total magnetization       =    -0.01 Bohr mag/cell
     absolute magnetization    =     0.01 Bohr mag/cell

     iteration # 43     ecut=    90.00 Ry     beta= 0.20
     Davidson diagonalization with overlap
     ethr =  4.54E-10,  avg # of iterations =  4.1

     total cpu time spent up to now is     1862.0 secs

     total energy              =   -2038.17429876 Ry
     estimated scf accuracy    <       0.00000132 Ry

     total magnetization       =    -0.01 Bohr mag/cell
     absolute magnetization    =     0.01 Bohr mag/cell

     iteration # 44     ecut=    90.00 Ry     beta= 0.20
     Davidson diagonalization with overlap
     ethr =  4.54E-10,  avg # of iterations =  1.0

     total cpu time spent up to now is     1900.3 secs

     total energy              =   -2038.17429881 Ry
     estimated scf accuracy    <       0.00000039 Ry

     total magnetization       =    -0.01 Bohr mag/cell
     absolute magnetization    =     0.01 Bohr mag/cell

     iteration # 45     ecut=    90.00 Ry     beta= 0.20
     Davidson diagonalization with overlap
     ethr =  3.02E-10,  avg # of iterations =  1.0

     total cpu time spent up to now is     1938.6 secs

     total energy              =   -2038.17429881 Ry
     estimated scf accuracy    <       0.00000057 Ry

     total magnetization       =    -0.01 Bohr mag/cell
     absolute magnetization    =     0.01 Bohr mag/cell

     iteration # 46     ecut=    90.00 Ry     beta= 0.20
     Davidson diagonalization with overlap
     ethr =  3.02E-10,  avg # of iterations =  1.0

     total cpu time spent up to now is     1976.8 secs

     total energy              =   -2038.17429881 Ry
     estimated scf accuracy    <       0.00000194 Ry

     total magnetization       =    -0.01 Bohr mag/cell
     absolute magnetization    =     0.01 Bohr mag/cell

     iteration # 47     ecut=    90.00 Ry     beta= 0.20
     Davidson diagonalization with overlap
     ethr =  3.02E-10,  avg # of iterations =  1.0

     total cpu time spent up to now is     2015.1 secs

     total energy              =   -2038.17429877 Ry
     estimated scf accuracy    <       0.00000043 Ry

     total magnetization       =    -0.01 Bohr mag/cell
     absolute magnetization    =     0.01 Bohr mag/cell

     iteration # 48     ecut=    90.00 Ry     beta= 0.20
     Davidson diagonalization with overlap
     ethr =  3.02E-10,  avg # of iterations =  1.0

     total cpu time spent up to now is     2053.4 secs

     total energy              =   -2038.17429867 Ry
     estimated scf accuracy    <       0.00000089 Ry

     total magnetization       =    -0.01 Bohr mag/cell
     absolute magnetization    =     0.01 Bohr mag/cell

     iteration # 49     ecut=    90.00 Ry     beta= 0.20
     Davidson diagonalization with overlap
     ethr =  3.02E-10,  avg # of iterations =  1.3

     total cpu time spent up to now is     2093.3 secs

     total energy              =   -2038.17429869 Ry
     estimated scf accuracy    <       0.00000127 Ry

     total magnetization       =    -0.01 Bohr mag/cell
     absolute magnetization    =     0.01 Bohr mag/cell

     iteration # 50     ecut=    90.00 Ry     beta= 0.20
     Davidson diagonalization with overlap
     ethr =  3.02E-10,  avg # of iterations =  1.4

     total cpu time spent up to now is     2133.1 secs

     total energy              =   -2038.17429871 Ry
     estimated scf accuracy    <       0.00000140 Ry

     total magnetization       =    -0.01 Bohr mag/cell
     absolute magnetization    =     0.01 Bohr mag/cell

     iteration # 51     ecut=    90.00 Ry     beta= 0.20
     Davidson diagonalization with overlap
     ethr =  3.02E-10,  avg # of iterations =  1.0

     total cpu time spent up to now is     2171.3 secs

     total energy              =   -2038.17429874 Ry
     estimated scf accuracy    <       0.00000024 Ry

     total magnetization       =    -0.01 Bohr mag/cell
     absolute magnetization    =     0.01 Bohr mag/cell

     iteration # 52     ecut=    90.00 Ry     beta= 0.20
     Davidson diagonalization with overlap
     ethr =  1.86E-10,  avg # of iterations =  1.0

     total cpu time spent up to now is     2209.6 secs

     total energy              =   -2038.17429874 Ry
     estimated scf accuracy    <       0.00000024 Ry

     total magnetization       =    -0.01 Bohr mag/cell
     absolute magnetization    =     0.01 Bohr mag/cell

     iteration # 53     ecut=    90.00 Ry     beta= 0.20
     Davidson diagonalization with overlap
     ethr =  1.86E-10,  avg # of iterations =  1.0

     total cpu time spent up to now is     2247.8 secs

     total energy              =   -2038.17429877 Ry
     estimated scf accuracy    <       0.00000021 Ry

     total magnetization       =    -0.01 Bohr mag/cell
     absolute magnetization    =     0.01 Bohr mag/cell

     iteration # 54     ecut=    90.00 Ry     beta= 0.20
     Davidson diagonalization with overlap
     ethr =  1.63E-10,  avg # of iterations =  1.0

     total cpu time spent up to now is     2285.9 secs

     total energy              =   -2038.17429879 Ry
     estimated scf accuracy    <       0.00000031 Ry

     total magnetization       =    -0.01 Bohr mag/cell
     absolute magnetization    =     0.01 Bohr mag/cell

     iteration # 55     ecut=    90.00 Ry     beta= 0.20
     Davidson diagonalization with overlap
     ethr =  1.63E-10,  avg # of iterations =  1.0

     total cpu time spent up to now is     2324.1 secs

     total energy              =   -2038.17429878 Ry
     estimated scf accuracy    <       0.00000044 Ry

     total magnetization       =    -0.01 Bohr mag/cell
     absolute magnetization    =     0.01 Bohr mag/cell

     iteration # 56     ecut=    90.00 Ry     beta= 0.20
     Davidson diagonalization with overlap
     ethr =  1.63E-10,  avg # of iterations =  1.0

     total cpu time spent up to now is     2362.2 secs

     total energy              =   -2038.17429879 Ry
     estimated scf accuracy    <       0.00000040 Ry

     total magnetization       =    -0.01 Bohr mag/cell
     absolute magnetization    =     0.01 Bohr mag/cell

     iteration # 57     ecut=    90.00 Ry     beta= 0.20
     Davidson diagonalization with overlap
     ethr =  1.63E-10,  avg # of iterations =  1.0

     total cpu time spent up to now is     2400.4 secs

     total energy              =   -2038.17429880 Ry
     estimated scf accuracy    <       0.00000036 Ry

     total magnetization       =    -0.01 Bohr mag/cell
     absolute magnetization    =     0.01 Bohr mag/cell

     iteration # 58     ecut=    90.00 Ry     beta= 0.20
     Davidson diagonalization with overlap
     ethr =  1.63E-10,  avg # of iterations =  1.0

     total cpu time spent up to now is     2438.5 secs

     total energy              =   -2038.17429880 Ry
     estimated scf accuracy    <       0.00000034 Ry

     total magnetization       =    -0.01 Bohr mag/cell
     absolute magnetization    =     0.01 Bohr mag/cell

     iteration # 59     ecut=    90.00 Ry     beta= 0.20
     Davidson diagonalization with overlap
     ethr =  1.63E-10,  avg # of iterations =  1.0

     total cpu time spent up to now is     2476.8 secs

     total energy              =   -2038.17429879 Ry
     estimated scf accuracy    <       0.00000108 Ry

     total magnetization       =    -0.01 Bohr mag/cell
     absolute magnetization    =     0.01 Bohr mag/cell

     iteration # 60     ecut=    90.00 Ry     beta= 0.20
     Davidson diagonalization with overlap
     ethr =  1.63E-10,  avg # of iterations =  1.0

     total cpu time spent up to now is     2514.9 secs

     total energy              =   -2038.17429880 Ry
     estimated scf accuracy    <       0.00000044 Ry

     total magnetization       =    -0.01 Bohr mag/cell
     absolute magnetization    =     0.01 Bohr mag/cell

     iteration # 61     ecut=    90.00 Ry     beta= 0.20
     Davidson diagonalization with overlap
     ethr =  1.63E-10,  avg # of iterations =  1.0

     total cpu time spent up to now is     2553.0 secs

     total energy              =   -2038.17429880 Ry
     estimated scf accuracy    <       0.00000035 Ry

     total magnetization       =    -0.01 Bohr mag/cell
     absolute magnetization    =     0.01 Bohr mag/cell

     iteration # 62     ecut=    90.00 Ry     beta= 0.20
     Davidson diagonalization with overlap
     ethr =  1.63E-10,  avg # of iterations =  1.0

     total cpu time spent up to now is     2591.1 secs

     total energy              =   -2038.17429879 Ry
     estimated scf accuracy    <       0.00000033 Ry

     total magnetization       =    -0.01 Bohr mag/cell
     absolute magnetization    =     0.01 Bohr mag/cell

     iteration # 63     ecut=    90.00 Ry     beta= 0.20
     Davidson diagonalization with overlap
     ethr =  1.63E-10,  avg # of iterations =  1.0

     total cpu time spent up to now is     2629.2 secs

     total energy              =   -2038.17429885 Ry
     estimated scf accuracy    <       0.00000036 Ry

     total magnetization       =    -0.01 Bohr mag/cell
     absolute magnetization    =     0.01 Bohr mag/cell

     iteration # 64     ecut=    90.00 Ry     beta= 0.20
     Davidson diagonalization with overlap
     ethr =  1.63E-10,  avg # of iterations =  1.1

     total cpu time spent up to now is     2667.6 secs

     total energy              =   -2038.17429883 Ry
     estimated scf accuracy    <       0.00000114 Ry

     total magnetization       =    -0.01 Bohr mag/cell
     absolute magnetization    =     0.01 Bohr mag/cell

     iteration # 65     ecut=    90.00 Ry     beta= 0.20
     Davidson diagonalization with overlap
     ethr =  1.63E-10,  avg # of iterations =  1.0

     total cpu time spent up to now is     2705.9 secs

     total energy              =   -2038.17429885 Ry
     estimated scf accuracy    <       0.00000071 Ry

     total magnetization       =    -0.01 Bohr mag/cell
     absolute magnetization    =     0.01 Bohr mag/cell

     iteration # 66     ecut=    90.00 Ry     beta= 0.20
     Davidson diagonalization with overlap
     ethr =  1.63E-10,  avg # of iterations =  1.0

     total cpu time spent up to now is     2744.1 secs

     total energy              =   -2038.17429887 Ry
     estimated scf accuracy    <       0.00000074 Ry

     total magnetization       =    -0.01 Bohr mag/cell
     absolute magnetization    =     0.01 Bohr mag/cell

     iteration # 67     ecut=    90.00 Ry     beta= 0.20
     Davidson diagonalization with overlap
     ethr =  1.63E-10,  avg # of iterations =  1.0

     total cpu time spent up to now is     2782.2 secs

     total energy              =   -2038.17429887 Ry
     estimated scf accuracy    <       0.00000053 Ry

     total magnetization       =    -0.01 Bohr mag/cell
     absolute magnetization    =     0.01 Bohr mag/cell

     iteration # 68     ecut=    90.00 Ry     beta= 0.20
     Davidson diagonalization with overlap
     ethr =  1.63E-10,  avg # of iterations =  1.0

     total cpu time spent up to now is     2820.5 secs

     total energy              =   -2038.17429839 Ry
     estimated scf accuracy    <       0.00000075 Ry

     total magnetization       =    -0.01 Bohr mag/cell
     absolute magnetization    =     0.01 Bohr mag/cell

     iteration # 69     ecut=    90.00 Ry     beta= 0.20
     Davidson diagonalization with overlap
     ethr =  1.63E-10,  avg # of iterations =  2.8

     total cpu time spent up to now is     2868.2 secs

     total energy              =   -2038.17429866 Ry
     estimated scf accuracy    <       0.00000082 Ry

     total magnetization       =    -0.00 Bohr mag/cell
     absolute magnetization    =     0.01 Bohr mag/cell

     iteration # 70     ecut=    90.00 Ry     beta= 0.20
     Davidson diagonalization with overlap
     ethr =  1.63E-10,  avg # of iterations =  1.2

     total cpu time spent up to now is     2907.0 secs

     total energy              =   -2038.17429866 Ry
     estimated scf accuracy    <       0.00000062 Ry

     total magnetization       =    -0.00 Bohr mag/cell
     absolute magnetization    =     0.01 Bohr mag/cell

     iteration # 71     ecut=    90.00 Ry     beta= 0.20
     Davidson diagonalization with overlap
     ethr =  1.63E-10,  avg # of iterations =  1.2

     total cpu time spent up to now is     2945.9 secs

     total energy              =   -2038.17429857 Ry
     estimated scf accuracy    <       0.00000046 Ry

     total magnetization       =    -0.00 Bohr mag/cell
     absolute magnetization    =     0.01 Bohr mag/cell

     iteration # 72     ecut=    90.00 Ry     beta= 0.20
     Davidson diagonalization with overlap
     ethr =  1.63E-10,  avg # of iterations =  1.1

     total cpu time spent up to now is     2984.8 secs

     total energy              =   -2038.17429865 Ry
     estimated scf accuracy    <       0.00000009 Ry

     total magnetization       =     0.00 Bohr mag/cell
     absolute magnetization    =     0.01 Bohr mag/cell

     iteration # 73     ecut=    90.00 Ry     beta= 0.20
     Davidson diagonalization with overlap
     ethr =  7.02E-11,  avg # of iterations =  1.0

     total cpu time spent up to now is     3023.0 secs

     total energy              =   -2038.17429865 Ry
     estimated scf accuracy    <       0.00000011 Ry

     total magnetization       =    -0.00 Bohr mag/cell
     absolute magnetization    =     0.01 Bohr mag/cell

     iteration # 74     ecut=    90.00 Ry     beta= 0.20
     Davidson diagonalization with overlap
     ethr =  7.02E-11,  avg # of iterations =  1.1

     total cpu time spent up to now is     3061.4 secs

     total energy              =   -2038.17429866 Ry
     estimated scf accuracy    <       0.00000003 Ry

     total magnetization       =     0.00 Bohr mag/cell
     absolute magnetization    =     0.01 Bohr mag/cell

     iteration # 75     ecut=    90.00 Ry     beta= 0.20
     Davidson diagonalization with overlap
     ethr =  2.11E-11,  avg # of iterations =  1.2

     total cpu time spent up to now is     3100.8 secs

     total energy              =   -2038.17429866 Ry
     estimated scf accuracy    <       0.00000004 Ry

     total magnetization       =     0.00 Bohr mag/cell
     absolute magnetization    =     0.01 Bohr mag/cell

     iteration # 76     ecut=    90.00 Ry     beta= 0.20
     Davidson diagonalization with overlap
     ethr =  2.11E-11,  avg # of iterations =  1.0

     total cpu time spent up to now is     3138.9 secs

     total energy              =   -2038.17429866 Ry
     estimated scf accuracy    <       0.00000002 Ry

     total magnetization       =     0.00 Bohr mag/cell
     absolute magnetization    =     0.01 Bohr mag/cell

     iteration # 77     ecut=    90.00 Ry     beta= 0.20
     Davidson diagonalization with overlap
     ethr =  1.27E-11,  avg # of iterations =  1.0

     total cpu time spent up to now is     3177.2 secs

     total energy              =   -2038.17429866 Ry
     estimated scf accuracy    <       0.00000001 Ry

     total magnetization       =     0.00 Bohr mag/cell
     absolute magnetization    =     0.01 Bohr mag/cell

     iteration # 78     ecut=    90.00 Ry     beta= 0.20
     Davidson diagonalization with overlap
     ethr =  1.01E-11,  avg # of iterations =  1.0

     total cpu time spent up to now is     3215.4 secs

     total energy              =   -2038.17429866 Ry
     estimated scf accuracy    <       0.00000001 Ry

     total magnetization       =     0.00 Bohr mag/cell
     absolute magnetization    =     0.01 Bohr mag/cell

     iteration # 79     ecut=    90.00 Ry     beta= 0.20
     Davidson diagonalization with overlap
     ethr =  9.63E-12,  avg # of iterations =  1.1

     total cpu time spent up to now is     3253.8 secs

     total energy              =   -2038.17429866 Ry
     estimated scf accuracy    <       0.00000007 Ry

     total magnetization       =     0.00 Bohr mag/cell
     absolute magnetization    =     0.01 Bohr mag/cell

     iteration # 80     ecut=    90.00 Ry     beta= 0.20
     Davidson diagonalization with overlap
     ethr =  9.63E-12,  avg # of iterations =  1.1

     total cpu time spent up to now is     3292.4 secs

     total energy              =   -2038.17429866 Ry
     estimated scf accuracy    <       0.00000010 Ry

     total magnetization       =     0.00 Bohr mag/cell
     absolute magnetization    =     0.01 Bohr mag/cell

     iteration # 81     ecut=    90.00 Ry     beta= 0.20
     Davidson diagonalization with overlap
     ethr =  9.63E-12,  avg # of iterations =  1.2

     total cpu time spent up to now is     3331.5 secs

     total energy              =   -2038.17429866 Ry
     estimated scf accuracy    <       0.00000007 Ry

     total magnetization       =     0.00 Bohr mag/cell
     absolute magnetization    =     0.01 Bohr mag/cell

     iteration # 82     ecut=    90.00 Ry     beta= 0.20
     Davidson diagonalization with overlap
     ethr =  9.63E-12,  avg # of iterations =  1.0

     total cpu time spent up to now is     3369.6 secs

     total energy              =   -2038.17429866 Ry
     estimated scf accuracy    <       0.00000002 Ry

     total magnetization       =     0.00 Bohr mag/cell
     absolute magnetization    =     0.01 Bohr mag/cell

     iteration # 83     ecut=    90.00 Ry     beta= 0.20
     Davidson diagonalization with overlap
     ethr =  9.63E-12,  avg # of iterations =  1.0

     total cpu time spent up to now is     3407.8 secs

     total energy              =   -2038.17429864 Ry
     estimated scf accuracy    <       0.00000003 Ry

     total magnetization       =    -0.00 Bohr mag/cell
     absolute magnetization    =     0.01 Bohr mag/cell

     iteration # 84     ecut=    90.00 Ry     beta= 0.20
     Davidson diagonalization with overlap
     ethr =  9.63E-12,  avg # of iterations =  2.6

     total cpu time spent up to now is     3453.6 secs

     total energy              =   -2038.17429865 Ry
     estimated scf accuracy    <       0.00000001 Ry

     total magnetization       =     0.00 Bohr mag/cell
     absolute magnetization    =     0.01 Bohr mag/cell

     iteration # 85     ecut=    90.00 Ry     beta= 0.20
     Davidson diagonalization with overlap
     ethr =  8.53E-12,  avg # of iterations =  1.0

     Magnetic moment per site:
     atom:    1    charge:   12.8752    magn:    0.0002    constr:    0.0000
     atom:    2    charge:   15.2055    magn:    0.0007    constr:    0.0000
     atom:    3    charge:   12.8751    magn:   -0.0001    constr:    0.0000
     atom:    4    charge:   15.2055    magn:   -0.0005    constr:    0.0000
     atom:    5    charge:   12.8754    magn:   -0.0000    constr:    0.0000
     atom:    6    charge:   15.2055    magn:   -0.0005    constr:    0.0000
     atom:    7    charge:   12.8754    magn:    0.0001    constr:    0.0000
     atom:    8    charge:   15.2055    magn:    0.0006    constr:    0.0000

     total cpu time spent up to now is     3491.7 secs

     End of self-consistent calculation

     Number of k-points >= 100: set verbosity='high' to print the bands.

     the Fermi energy is    17.2723 ev

!    total energy              =   -2038.17429865 Ry
     estimated scf accuracy    <          2.8E-09 Ry
     smearing contrib. (-TS)   =      -0.01739981 Ry
     internal energy E=F+TS    =   -2038.15689884 Ry

     The total energy is F=E-TS. E is the sum of the following terms:
     one-electron contribution =   -1055.92235382 Ry
     hartree contribution      =     600.02790190 Ry
     xc contribution           =    -236.48557226 Ry
     ewald contribution        =   -1345.77687467 Ry

     total magnetization       =     0.00 Bohr mag/cell
     absolute magnetization    =     0.01 Bohr mag/cell

     convergence has been achieved in  85 iterations

     Forces acting on atoms (cartesian axes, Ry/au):

     atom    1 type  1   force =    -0.00146344    0.00125398    0.00046791
     atom    2 type  2   force =    -0.00099440   -0.00062684   -0.00025217
     atom    3 type  1   force =    -0.00146303    0.00125414    0.00046789
     atom    4 type  2   force =    -0.00099305   -0.00062630   -0.00025180
     atom    5 type  1   force =     0.00109267   -0.00086427   -0.00032467
     atom    6 type  2   force =     0.00136386    0.00023689    0.00010910
     atom    7 type  1   force =     0.00109275   -0.00086416   -0.00032475
     atom    8 type  2   force =     0.00136464    0.00023656    0.00010849

     Total force =     0.004325     Total SCF correction =     0.000007


     Computing stress (Cartesian axis) and pressure

          total   stress  (Ry/bohr**3)                   (kbar)     P=      -10.72
  -0.00006448  -0.00000072  -0.00000028           -9.49       -0.11       -0.04
  -0.00000072  -0.00006389  -0.00000024           -0.11       -9.40       -0.03
  -0.00000028  -0.00000024  -0.00009034           -0.04       -0.03      -13.29


     BFGS Geometry Optimization
     Energy error            =      0.0E+00
     Gradient error          =      1.5E-03

     number of scf cycles    =   1
     number of bfgs steps    =   0

     energy   new            =   -2038.1742986521 Ry

     new trust radius        =       0.0019831907 bohr
     new conv_thr            =       0.0000000100 Ry


ATOMIC_POSITIONS (angstrom)
Mn           -0.0060217616        2.2947996173       -0.0028401552
Co            2.2811981843        0.0054741227        2.2940112989
Mn           -0.0060215580        0.0082997817        2.2950924424
Co            2.2811971401        2.2919741374       -0.0039209667
Mn            2.2977183190       -0.0094231218       -0.0097531082
Co           -0.0019587487        2.2932104895        2.2945317054
Mn            2.2977186614        2.2770768220        2.2881792614
Co           -0.0019584594        0.0067094346       -0.0034014437



     Writing output data file ./pwscf.save/
     NEW-OLD atomic charge density approx. for the potential

     Check: negative core charge=   -0.000017
     Generating pointlists ...

     total cpu time spent up to now is     3516.7 secs

     Self-consistent Calculation

     iteration #  1     ecut=    90.00 Ry     beta= 0.20
     Davidson diagonalization with overlap
     ethr =  1.00E-06,  avg # of iterations =  3.1

     Threshold (ethr) on eigenvalues was too large:
     Diagonalizing with lowered threshold

     Davidson diagonalization with overlap
     ethr =  2.53E-09,  avg # of iterations =  5.3

     total cpu time spent up to now is     3659.1 secs

     total energy              =   -2038.17431775 Ry
     estimated scf accuracy    <       0.00000285 Ry

     total magnetization       =     0.00 Bohr mag/cell
     absolute magnetization    =     0.01 Bohr mag/cell

     iteration #  2     ecut=    90.00 Ry     beta= 0.20
     Davidson diagonalization with overlap
     ethr =  2.23E-09,  avg # of iterations =  2.9

     total cpu time spent up to now is     3709.1 secs

     total energy              =   -2038.17431607 Ry
     estimated scf accuracy    <       0.00010567 Ry

     total magnetization       =     0.00 Bohr mag/cell
     absolute magnetization    =     0.01 Bohr mag/cell

     iteration #  3     ecut=    90.00 Ry     beta= 0.20
     Davidson diagonalization with overlap
     ethr =  2.23E-09,  avg # of iterations =  2.5

     total cpu time spent up to now is     3753.3 secs

     total energy              =   -2038.17431810 Ry
     estimated scf accuracy    <       0.00001101 Ry

     total magnetization       =     0.00 Bohr mag/cell
     absolute magnetization    =     0.01 Bohr mag/cell

     iteration #  4     ecut=    90.00 Ry     beta= 0.20
     Davidson diagonalization with overlap
     ethr =  2.23E-09,  avg # of iterations =  1.0

     total cpu time spent up to now is     3791.4 secs

     total energy              =   -2038.17431830 Ry
     estimated scf accuracy    <       0.00000087 Ry

     total magnetization       =     0.00 Bohr mag/cell
     absolute magnetization    =     0.01 Bohr mag/cell

     iteration #  5     ecut=    90.00 Ry     beta= 0.20
     Davidson diagonalization with overlap
     ethr =  6.79E-10,  avg # of iterations =  1.2

     total cpu time spent up to now is     3830.4 secs

     total energy              =   -2038.17431829 Ry
     estimated scf accuracy    <       0.00000135 Ry

     total magnetization       =     0.00 Bohr mag/cell
     absolute magnetization    =     0.01 Bohr mag/cell

     iteration #  6     ecut=    90.00 Ry     beta= 0.20
     Davidson diagonalization with overlap
     ethr =  6.79E-10,  avg # of iterations =  1.0

     total cpu time spent up to now is     3868.5 secs

     total energy              =   -2038.17431833 Ry
     estimated scf accuracy    <       0.00000054 Ry

     total magnetization       =     0.00 Bohr mag/cell
     absolute magnetization    =     0.01 Bohr mag/cell

     iteration #  7     ecut=    90.00 Ry     beta= 0.20
     Davidson diagonalization with overlap
     ethr =  4.25E-10,  avg # of iterations =  1.0

     total cpu time spent up to now is     3906.7 secs

     total energy              =   -2038.17431834 Ry
     estimated scf accuracy    <       0.00000082 Ry

     total magnetization       =     0.00 Bohr mag/cell
     absolute magnetization    =     0.01 Bohr mag/cell

     iteration #  8     ecut=    90.00 Ry     beta= 0.20
     Davidson diagonalization with overlap
     ethr =  4.25E-10,  avg # of iterations =  1.0

     total cpu time spent up to now is     3945.6 secs

     total energy              =   -2038.17431836 Ry
     estimated scf accuracy    <       0.00000015 Ry

     total magnetization       =     0.00 Bohr mag/cell
     absolute magnetization    =     0.01 Bohr mag/cell

     iteration #  9     ecut=    90.00 Ry     beta= 0.20
     Davidson diagonalization with overlap
     ethr =  1.16E-10,  avg # of iterations =  1.0

     total cpu time spent up to now is     3983.8 secs

     total energy              =   -2038.17431837 Ry
     estimated scf accuracy    <       0.00000003 Ry

     total magnetization       =     0.00 Bohr mag/cell
     absolute magnetization    =     0.01 Bohr mag/cell

     iteration # 10     ecut=    90.00 Ry     beta= 0.20
     Davidson diagonalization with overlap
     ethr =  2.09E-11,  avg # of iterations =  1.2

     total cpu time spent up to now is     4022.6 secs

     total energy              =   -2038.17431837 Ry
     estimated scf accuracy    <       0.00000004 Ry

     total magnetization       =     0.00 Bohr mag/cell
     absolute magnetization    =     0.01 Bohr mag/cell

     iteration # 11     ecut=    90.00 Ry     beta= 0.20
     Davidson diagonalization with overlap
     ethr =  2.09E-11,  avg # of iterations =  1.0

     total cpu time spent up to now is     4060.8 secs

     total energy              =   -2038.17431838 Ry
     estimated scf accuracy    <       0.00000002 Ry

     total magnetization       =     0.00 Bohr mag/cell
     absolute magnetization    =     0.01 Bohr mag/cell

     iteration # 12     ecut=    90.00 Ry     beta= 0.20
     Davidson diagonalization with overlap
     ethr =  1.91E-11,  avg # of iterations =  1.1

     total cpu time spent up to now is     4099.2 secs

     total energy              =   -2038.17431837 Ry
     estimated scf accuracy    <       0.00000004 Ry

     total magnetization       =     0.00 Bohr mag/cell
     absolute magnetization    =     0.01 Bohr mag/cell

     iteration # 13     ecut=    90.00 Ry     beta= 0.20
     Davidson diagonalization with overlap
     ethr =  1.91E-11,  avg # of iterations =  1.0

     total cpu time spent up to now is     4137.4 secs

     total energy              =   -2038.17431838 Ry
     estimated scf accuracy    <       0.00000003 Ry

     total magnetization       =     0.00 Bohr mag/cell
     absolute magnetization    =     0.01 Bohr mag/cell

     iteration # 14     ecut=    90.00 Ry     beta= 0.20
     Davidson diagonalization with overlap
     ethr =  1.91E-11,  avg # of iterations =  1.0

     total cpu time spent up to now is     4175.6 secs

     total energy              =   -2038.17431837 Ry
     estimated scf accuracy    <       0.00000003 Ry

     total magnetization       =     0.00 Bohr mag/cell
     absolute magnetization    =     0.01 Bohr mag/cell

     iteration # 15     ecut=    90.00 Ry     beta= 0.20
     Davidson diagonalization with overlap
     ethr =  1.91E-11,  avg # of iterations =  1.0

     total cpu time spent up to now is     4213.8 secs

     total energy              =   -2038.17431837 Ry
     estimated scf accuracy    <       0.00000003 Ry

     total magnetization       =     0.00 Bohr mag/cell
     absolute magnetization    =     0.01 Bohr mag/cell

     iteration # 16     ecut=    90.00 Ry     beta= 0.20
     Davidson diagonalization with overlap
     ethr =  1.91E-11,  avg # of iterations =  1.0

     total cpu time spent up to now is     4252.0 secs

     total energy              =   -2038.17431837 Ry
     estimated scf accuracy    <       0.00000002 Ry

     total magnetization       =     0.00 Bohr mag/cell
     absolute magnetization    =     0.01 Bohr mag/cell

     iteration # 17     ecut=    90.00 Ry     beta= 0.20
     Davidson diagonalization with overlap
     ethr =  1.88E-11,  avg # of iterations =  1.0

     total cpu time spent up to now is     4290.1 secs

     total energy              =   -2038.17431837 Ry
     estimated scf accuracy    <       0.00000002 Ry

     total magnetization       =     0.00 Bohr mag/cell
     absolute magnetization    =     0.01 Bohr mag/cell

     iteration # 18     ecut=    90.00 Ry     beta= 0.20
     Davidson diagonalization with overlap
     ethr =  1.53E-11,  avg # of iterations =  1.0

     total cpu time spent up to now is     4328.3 secs

     total energy              =   -2038.17431836 Ry
     estimated scf accuracy    <       0.00000008 Ry

     total magnetization       =     0.00 Bohr mag/cell
     absolute magnetization    =     0.01 Bohr mag/cell

     iteration # 19     ecut=    90.00 Ry     beta= 0.20
     Davidson diagonalization with overlap
     ethr =  1.53E-11,  avg # of iterations =  1.2

     total cpu time spent up to now is     4367.3 secs

     total energy              =   -2038.17431836 Ry
     estimated scf accuracy    <       0.00000007 Ry

     total magnetization       =     0.00 Bohr mag/cell
     absolute magnetization    =     0.01 Bohr mag/cell

     iteration # 20     ecut=    90.00 Ry     beta= 0.20
     Davidson diagonalization with overlap
     ethr =  1.53E-11,  avg # of iterations =  1.5

     total cpu time spent up to now is     4407.6 secs

     total energy              =   -2038.17431836 Ry
     estimated scf accuracy    <       0.00000002 Ry

     total magnetization       =     0.00 Bohr mag/cell
     absolute magnetization    =     0.01 Bohr mag/cell

     iteration # 21     ecut=    90.00 Ry     beta= 0.20
     Davidson diagonalization with overlap
     ethr =  1.53E-11,  avg # of iterations =  1.1

     total cpu time spent up to now is     4446.0 secs

     total energy              =   -2038.17431836 Ry
     estimated scf accuracy    <       0.00000002 Ry

     total magnetization       =     0.00 Bohr mag/cell
     absolute magnetization    =     0.01 Bohr mag/cell

     iteration # 22     ecut=    90.00 Ry     beta= 0.20
     Davidson diagonalization with overlap
     ethr =  1.53E-11,  avg # of iterations =  1.0

     total cpu time spent up to now is     4484.2 secs

     total energy              =   -2038.17431836 Ry
     estimated scf accuracy    <       0.00000002 Ry

     total magnetization       =     0.00 Bohr mag/cell
     absolute magnetization    =     0.01 Bohr mag/cell

     iteration # 23     ecut=    90.00 Ry     beta= 0.20
     Davidson diagonalization with overlap
     ethr =  1.50E-11,  avg # of iterations =  1.0

     Magnetic moment per site:
     atom:    1    charge:   12.8752    magn:    0.0001    constr:    0.0000
     atom:    2    charge:   15.2055    magn:    0.0007    constr:    0.0000
     atom:    3    charge:   12.8751    magn:   -0.0001    constr:    0.0000
     atom:    4    charge:   15.2055    magn:   -0.0006    constr:    0.0000
     atom:    5    charge:   12.8755    magn:   -0.0001    constr:    0.0000
     atom:    6    charge:   15.2055    magn:   -0.0006    constr:    0.0000
     atom:    7    charge:   12.8754    magn:    0.0001    constr:    0.0000
     atom:    8    charge:   15.2055    magn:    0.0007    constr:    0.0000

     total cpu time spent up to now is     4522.4 secs

     End of self-consistent calculation

     Number of k-points >= 100: set verbosity='high' to print the bands.

     the Fermi energy is    17.2723 ev

!    total energy              =   -2038.17431836 Ry
     estimated scf accuracy    <          3.7E-09 Ry
     smearing contrib. (-TS)   =      -0.01739830 Ry
     internal energy E=F+TS    =   -2038.15692006 Ry

     The total energy is F=E-TS. E is the sum of the following terms:
     one-electron contribution =   -1055.92145724 Ry
     hartree contribution      =     600.02749465 Ry
     xc contribution           =    -236.48555813 Ry
     ewald contribution        =   -1345.77739933 Ry

     total magnetization       =     0.00 Bohr mag/cell
     absolute magnetization    =     0.01 Bohr mag/cell

     convergence has been achieved in  23 iterations

     Forces acting on atoms (cartesian axes, Ry/au):

     atom    1 type  1   force =    -0.00163129    0.00132578    0.00049467
     atom    2 type  2   force =    -0.00107684   -0.00064380   -0.00025758
     atom    3 type  1   force =    -0.00162986    0.00132228    0.00049366
     atom    4 type  2   force =    -0.00108214   -0.00065186   -0.00026000
     atom    5 type  1   force =     0.00127433   -0.00094513   -0.00035474
     atom    6 type  2   force =     0.00143683    0.00026466    0.00011772
     atom    7 type  1   force =     0.00127340   -0.00094323   -0.00035407
     atom    8 type  2   force =     0.00143557    0.00027129    0.00012033

     Total force =     0.004711     Total SCF correction =     0.000276


     Computing stress (Cartesian axis) and pressure

          total   stress  (Ry/bohr**3)                   (kbar)     P=      -10.67
  -0.00006412  -0.00000091  -0.00000035           -9.43       -0.13       -0.05
  -0.00000091  -0.00006351  -0.00000024           -0.13       -9.34       -0.04
  -0.00000035  -0.00000024  -0.00008994           -0.05       -0.04      -13.23


     BFGS Geometry Optimization
     Energy error            =      0.0E+00
     Gradient error          =      1.6E-03

     number of scf cycles    =   1
     number of bfgs steps    =   0

     energy   new            =   -2038.1743183622 Ry

     new trust radius        =       0.0021595154 bohr
     new conv_thr            =       0.0000000100 Ry


ATOMIC_POSITIONS (angstrom)
Mn           -0.0068850030        2.2955011909       -0.0025783848
Co            2.2806283436        0.0051334360        2.2938749951
Mn           -0.0068840450        0.0089995045        2.2953536734
Co            2.2806244962        2.2916291861       -0.0040585540
Mn            2.2983926655       -0.0099232608       -0.0099408271
Co           -0.0011984100        2.2933505442        2.2945940028
Mn            2.2983925158        2.2765776875        2.2879918961
Co           -0.0011987859        0.0068529951       -0.0033377671



     Writing output data file ./pwscf.save/
     NEW-OLD atomic charge density approx. for the potential

     Check: negative core charge=   -0.000017
     Generating pointlists ...

     total cpu time spent up to now is     4547.4 secs

     Self-consistent Calculation

     iteration #  1     ecut=    90.00 Ry     beta= 0.20
     Davidson diagonalization with overlap
     ethr =  1.00E-06,  avg # of iterations =  3.4

     Threshold (ethr) on eigenvalues was too large:
     Diagonalizing with lowered threshold

     Davidson diagonalization with overlap
     ethr =  7.39E-09,  avg # of iterations =  4.2

     total cpu time spent up to now is     4682.8 secs

     total energy              =   -2038.17433943 Ry
     estimated scf accuracy    <       0.00000922 Ry

     total magnetization       =     0.00 Bohr mag/cell
     absolute magnetization    =     0.01 Bohr mag/cell

     iteration #  2     ecut=    90.00 Ry     beta= 0.20
     Davidson diagonalization with overlap
     ethr =  7.20E-09,  avg # of iterations =  3.8

     total cpu time spent up to now is     4736.0 secs

     total energy              =   -2038.17432726 Ry
     estimated scf accuracy    <       0.00092316 Ry

     total magnetization       =    -0.00 Bohr mag/cell
     absolute magnetization    =     0.01 Bohr mag/cell

     iteration #  3     ecut=    90.00 Ry     beta= 0.20
     Davidson diagonalization with overlap
     ethr =  7.20E-09,  avg # of iterations =  3.3

     total cpu time spent up to now is     4785.4 secs

     total energy              =   -2038.17434201 Ry
     estimated scf accuracy    <       0.00000291 Ry

     total magnetization       =    -0.00 Bohr mag/cell
     absolute magnetization    =     0.01 Bohr mag/cell

     iteration #  4     ecut=    90.00 Ry     beta= 0.20
     Davidson diagonalization with overlap
     ethr =  2.27E-09,  avg # of iterations =  1.3

     total cpu time spent up to now is     4825.9 secs

     total energy              =   -2038.17434206 Ry
     estimated scf accuracy    <       0.00000139 Ry

     total magnetization       =    -0.00 Bohr mag/cell
     absolute magnetization    =     0.01 Bohr mag/cell

     iteration #  5     ecut=    90.00 Ry     beta= 0.20
     Davidson diagonalization with overlap
     ethr =  1.09E-09,  avg # of iterations =  1.3

     total cpu time spent up to now is     4866.0 secs

     total energy              =   -2038.17434206 Ry
     estimated scf accuracy    <       0.00000309 Ry

     total magnetization       =    -0.00 Bohr mag/cell
     absolute magnetization    =     0.01 Bohr mag/cell

     iteration #  6     ecut=    90.00 Ry     beta= 0.20
     Davidson diagonalization with overlap
     ethr =  1.09E-09,  avg # of iterations =  1.0

     total cpu time spent up to now is     4904.7 secs

     total energy              =   -2038.17434213 Ry
     estimated scf accuracy    <       0.00000046 Ry

     total magnetization       =    -0.00 Bohr mag/cell
     absolute magnetization    =     0.01 Bohr mag/cell

     iteration #  7     ecut=    90.00 Ry     beta= 0.20
     Davidson diagonalization with overlap
     ethr =  3.61E-10,  avg # of iterations =  1.1

     total cpu time spent up to now is     4943.8 secs

     total energy              =   -2038.17434213 Ry
     estimated scf accuracy    <       0.00000050 Ry

     total magnetization       =    -0.00 Bohr mag/cell
     absolute magnetization    =     0.01 Bohr mag/cell

     iteration #  8     ecut=    90.00 Ry     beta= 0.20
     Davidson diagonalization with overlap
     ethr =  3.61E-10,  avg # of iterations =  1.0

     total cpu time spent up to now is     4982.6 secs

     total energy              =   -2038.17434215 Ry
     estimated scf accuracy    <       0.00000007 Ry

     total magnetization       =    -0.00 Bohr mag/cell
     absolute magnetization    =     0.01 Bohr mag/cell

     iteration #  9     ecut=    90.00 Ry     beta= 0.20
     Davidson diagonalization with overlap
     ethr =  5.26E-11,  avg # of iterations =  1.0

     total cpu time spent up to now is     5021.5 secs

     total energy              =   -2038.17434216 Ry
     estimated scf accuracy    <       0.00000006 Ry

     total magnetization       =    -0.00 Bohr mag/cell
     absolute magnetization    =     0.01 Bohr mag/cell

     iteration # 10     ecut=    90.00 Ry     beta= 0.20
     Davidson diagonalization with overlap
     ethr =  4.98E-11,  avg # of iterations =  1.0

     total cpu time spent up to now is     5060.3 secs

     total energy              =   -2038.17434216 Ry
     estimated scf accuracy    <       0.00000003 Ry

     total magnetization       =    -0.00 Bohr mag/cell
     absolute magnetization    =     0.01 Bohr mag/cell

     iteration # 11     ecut=    90.00 Ry     beta= 0.20
     Davidson diagonalization with overlap
     ethr =  2.44E-11,  avg # of iterations =  1.0

     total cpu time spent up to now is     5099.2 secs

     total energy              =   -2038.17434216 Ry
     estimated scf accuracy    <       0.00000001 Ry

     total magnetization       =    -0.00 Bohr mag/cell
     absolute magnetization    =     0.01 Bohr mag/cell

     iteration # 12     ecut=    90.00 Ry     beta= 0.20
     Davidson diagonalization with overlap
     ethr =  8.26E-12,  avg # of iterations =  1.0

     Magnetic moment per site:
     atom:    1    charge:   12.8752    magn:    0.0005    constr:    0.0000
     atom:    2    charge:   15.2055    magn:    0.0006    constr:    0.0000
     atom:    3    charge:   12.8752    magn:   -0.0005    constr:    0.0000
     atom:    4    charge:   15.2055    magn:   -0.0007    constr:    0.0000
     atom:    5    charge:   12.8754    magn:   -0.0006    constr:    0.0000
     atom:    6    charge:   15.2055    magn:   -0.0007    constr:    0.0000
     atom:    7    charge:   12.8754    magn:   -0.0001    constr:    0.0000
     atom:    8    charge:   15.2055    magn:    0.0008    constr:    0.0000

     total cpu time spent up to now is     5138.0 secs

     End of self-consistent calculation

     Number of k-points >= 100: set verbosity='high' to print the bands.

     the Fermi energy is    17.2723 ev

!    total energy              =   -2038.17434217 Ry
     estimated scf accuracy    <          7.4E-09 Ry
     smearing contrib. (-TS)   =      -0.01739641 Ry
     internal energy E=F+TS    =   -2038.15694576 Ry

     The total energy is F=E-TS. E is the sum of the following terms:
     one-electron contribution =   -1055.92057827 Ry
     hartree contribution      =     600.02695990 Ry
     xc contribution           =    -236.48552686 Ry
     ewald contribution        =   -1345.77780053 Ry

     total magnetization       =    -0.00 Bohr mag/cell
     absolute magnetization    =     0.01 Bohr mag/cell

     convergence has been achieved in  12 iterations

     Forces acting on atoms (cartesian axes, Ry/au):

     atom    1 type  1   force =    -0.00183796    0.00141166    0.00052626
     atom    2 type  2   force =    -0.00122256   -0.00066266   -0.00026633
     atom    3 type  1   force =    -0.00183737    0.00141107    0.00052651
     atom    4 type  2   force =    -0.00122050   -0.00066289   -0.00026632
     atom    5 type  1   force =     0.00148077   -0.00103822   -0.00038896
     atom    6 type  2   force =     0.00157837    0.00028786    0.00012868
     atom    7 type  1   force =     0.00148110   -0.00103798   -0.00038904
     atom    8 type  2   force =     0.00157815    0.00029116    0.00012920

     Total force =     0.005227     Total SCF correction =     0.000291


     Computing stress (Cartesian axis) and pressure

          total   stress  (Ry/bohr**3)                   (kbar)     P=      -10.70
  -0.00006436  -0.00000113  -0.00000043           -9.47       -0.17       -0.06
  -0.00000113  -0.00006371  -0.00000025           -0.17       -9.37       -0.04
  -0.00000043  -0.00000025  -0.00009011           -0.06       -0.04      -13.26


     BFGS Geometry Optimization
     Energy error            =      0.0E+00
     Gradient error          =      1.8E-03

     number of scf cycles    =   1
     number of bfgs steps    =   0

     energy   new            =   -2038.1743421673 Ry

     new trust radius        =       0.0023765171 bohr
     new conv_thr            =       0.0000000100 Ry


ATOMIC_POSITIONS (angstrom)
Mn           -0.0078576113        2.2962482082       -0.0022999018
Co            2.2799813945        0.0047827706        2.2937340580
Mn           -0.0078563392        0.0097462090        2.2956322897
Co            2.2799786344        2.2912784024       -0.0041994819
Mn            2.2991762543       -0.0104726605       -0.0101466581
Co           -0.0003631718        2.2935028725        2.2946620975
Mn            2.2991762816        2.2760284102        2.2877860274
Co           -0.0003636654        0.0070070708       -0.0032693963



     Writing output data file ./pwscf.save/
     NEW-OLD atomic charge density approx. for the potential

     Check: negative core charge=   -0.000017
     Generating pointlists ...

     total cpu time spent up to now is     5163.0 secs

     Self-consistent Calculation

     iteration #  1     ecut=    90.00 Ry     beta= 0.20
     Davidson diagonalization with overlap
     ethr =  1.00E-06,  avg # of iterations =  3.8

     Threshold (ethr) on eigenvalues was too large:
     Diagonalizing with lowered threshold

     Davidson diagonalization with overlap
