 # File generated with Atomsk by kevin on 2022-03-20 17:48:01
 
           8  atoms
           2  atom types
 
      0.000000000000       4.573000000000  xlo xhi
      0.000000000000       4.573000000000  ylo yhi
      0.000000000000       4.573000000000  zlo zhi
      0.022865000000       0.000000000000       0.000000000000  xy xz yz
 
Masses
 
            1   58.93319500             # Co
            2   0.00000000              # XX
 
Atoms # atomic
 
         1    1        0.000640680062       0.000577213610       0.006918198663
         2    4        2.302571946165       2.293308535270       2.294737199419
         3    1        0.012073180062       2.287077213610       2.293418198663
         4    4        2.291139446165       0.006808535270       0.008237199419
         5    1        2.298573180062       2.287077213610       0.006918198663
         6    4        0.000640680062       0.000577213610       2.293418198663
         7    1        2.287140680062       0.000577213610       2.293418198663
         8    4        0.012073180062       2.287077213610       0.006918198663
