 # File generated with Atomsk by kevin on 2022-03-20 17:48:00
 
           8  atoms
           2  atom types
 
      0.000000000000       4.595865000000  xlo xhi
      0.000000000000       4.573000000000  ylo yhi
      0.000000000000       4.573000000000  zlo zhi
 
Masses
 
            1   58.93319500             # Co
            2   0.00000000              # XX
 
Atoms # atomic
 
         1    1       -0.002842492329      -0.002900583760       0.000065586670
         2    4        2.306288543571       2.277100701037       2.293728446527
         3    1       -0.002842492329       2.283599416240       2.286565586670
         4    4        2.306288543571      -0.009399298963       0.007228446527
         5    1        2.295090007671       2.283599416240       0.000065586670
         6    4       -0.002842492329      -0.002900583760       2.286565586670
         7    1        2.295090007671      -0.002900583760       2.286565586670
         8    4       -0.002842492329       2.283599416240       0.000065586670
