 # File generated with Atomsk by kevin on 2022-03-20 17:48:14
 
           8  atoms
           2  atom types
 
      0.000000000000       4.635800000000  xlo xhi
      0.000000000000       4.635800000000  ylo yhi
      0.000000000000       4.635800000000  zlo zhi
      0.000000000000       0.000000000000      -0.023179000000  xy xz yz
 
Masses
 
            1   0.00000000              # XX
            2   0.00000000              # XX
 
Atoms # atomic
 
         1    4        0.000905783119       0.006583203191      -0.003013982537
         2    5        2.318751095374       2.311381916510       2.319216639004
         3    4        0.000905783119       2.312893703191       2.314886017463
         4    5        2.318751095374       0.005071416510       0.001316639004
         5    4        2.318805783119       2.324483203191      -0.003013982537
         6    5        0.000905783119      -0.005006296809       2.314886017463
         7    4        2.318805783119      -0.005006296809       2.314886017463
         8    5        0.000905783119       2.324483203191      -0.003013982537
