 # File generated with Atomsk by kevin on 2022-03-20 17:48:14
 
           8  atoms
           2  atom types
 
      0.000000000000       4.635800000000  xlo xhi
      0.000000000000       4.635800000000  ylo yhi
      0.000000000000       4.635800000000  zlo zhi
     -0.023179000000       0.000000000000       0.000000000000  xy xz yz
 
Masses
 
            1   0.00000000              # XX
            2   0.00000000              # XX
 
Atoms # atomic
 
         1    4       -0.006687118317      -0.001043792071       0.000480856964
         2    5        2.311447775435       2.312452034054       2.312895394604
         3    4       -0.018276618317       2.316856207929       2.318380856964
         4    5        2.323037275435      -0.005447965946      -0.005004605396
         5    4        2.299623381683       2.316856207929       0.000480856964
         6    5       -0.006687118317      -0.001043792071       2.318380856964
         7    4        2.311212881683      -0.001043792071       2.318380856964
         8    5       -0.018276618317       2.316856207929       0.000480856964
