 # File generated with Atomsk by kevin on 2022-03-20 17:45:25
 
           8  atoms
           2  atom types
 
      0.000000000000       4.612621000000  xlo xhi
      0.000000000000       4.635800000000  ylo yhi
      0.000000000000       4.635800000000  zlo zhi
 
Masses
 
            1   0.00000000              # XX
            2   0.00000000              # XX
 
Atoms # atomic
 
         1    4       -0.007681152293      -0.006778336739      -0.001228456350
         2    5        2.306908625084       2.319590205729       2.324852469892
         3    4       -0.007681152293       2.311121663261       2.316671543650
         4    5        2.306908625084       0.001690205729       0.006952469892
         5    4        2.298629347707       2.311121663261      -0.001228456350
         6    5       -0.007681152293      -0.006778336739       2.316671543650
         7    4        2.298629347707      -0.006778336739       2.316671543650
         8    5       -0.007681152293       2.311121663261      -0.001228456350
