 # File generated with Atomsk by kevin on 2022-03-20 17:48:14
 
           8  atoms
           2  atom types
 
      0.000000000000       4.635800000000  xlo xhi
      0.000000000000       4.635800000000  ylo yhi
      0.000000000000       4.612621000000  zlo zhi
 
Masses
 
            1   0.00000000              # XX
            2   0.00000000              # XX
 
Atoms # atomic
 
         1    4       -0.003573138840      -0.008410586709       0.008794639470
         2    5        2.316982491686       2.323830279055       2.313272150860
         3    4       -0.003573138840       2.309489413291       2.315105139470
         4    5        2.316982491686       0.005930279055       0.006961650860
         5    4        2.314326861160       2.309489413291       0.008794639470
         6    5       -0.003573138840      -0.008410586709       2.315105139470
         7    4        2.314326861160      -0.008410586709       2.315105139470
         8    5       -0.003573138840       2.309489413291       0.008794639470
