 # File generated with Atomsk by kevin on 2022-03-20 17:48:14
 
           8  atoms
           2  atom types
 
      0.000000000000       4.635800000000  xlo xhi
      0.000000000000       4.612621000000  ylo yhi
      0.000000000000       4.635800000000  zlo zhi
 
Masses
 
            1   0.00000000              # XX
            2   0.00000000              # XX
 
Atoms # atomic
 
         1    4       -0.006465689624      -0.003090040959       0.009714653697
         2    5        2.315869273758       2.309482590289       2.314832083728
         3    4       -0.006465689624       2.303220459041       2.327614653697
         4    5        2.315869273758       0.003172090289      -0.003067916272
         5    4        2.311434310376       2.303220459041       0.009714653697
         6    5       -0.006465689624      -0.003090040959       2.327614653697
         7    4        2.311434310376      -0.003090040959       2.327614653697
         8    5       -0.006465689624       2.303220459041       0.009714653697
