 # File generated with Atomsk by kevin on 2022-03-20 17:48:14
 
           8  atoms
           2  atom types
 
      0.000000000000       4.635800000000  xlo xhi
      0.000000000000       4.635800000000  ylo yhi
      0.000000000000       4.635800000000  zlo zhi
      0.000000000000      -0.023179000000       0.000000000000  xy xz yz
 
Masses
 
            1   0.00000000              # XX
            2   0.00000000              # XX
 
Atoms # atomic
 
         1    4       -0.000984822863       0.007231923149      -0.002091530546
         2    5        2.313369940484       2.324377891300       2.312846317530
         3    4       -0.012574322863       2.325131923149       2.315808469454
         4    5        2.324959440484       0.006477891300      -0.005053682470
         5    4        2.316915177137       2.325131923149      -0.002091530546
         6    5       -0.012574322863       0.007231923149       2.315808469454
         7    4        2.305325677137       0.007231923149       2.315808469454
         8    5       -0.000984822863       2.325131923149      -0.002091530546
