
     Program PWSCF v.6.7MaX starts on 22Mar2022 at 10:50: 3 

     This program is part of the open-source Quantum ESPRESSO suite
     for quantum simulation of materials; please cite
         "P. Giannozzi et al., J. Phys.:Condens. Matter 21 395502 (2009);
         "P. Giannozzi et al., J. Phys.:Condens. Matter 29 465901 (2017);
          URL http://www.quantum-espresso.org", 
     in publications or presentations arising from this work. More details at
     http://www.quantum-espresso.org/quote

     Parallel version (MPI), running on    16 processors

     MPI processes distributed on     1 nodes
     R & G space division:  proc/nbgrp/npool/nimage =      16
     Reading input from /home/kevin/QE_CoCrFeMnNi/CoCrFeMnNi/Opt/binary/Opt-B1-MnNi/Mix/elastic/Chg_4-B1-MnNi.in

     Current dimensions of program PWSCF are:
     Max number of different atomic species (ntypx) = 10
     Max number of k-points (npk) =  40000
     Max angular momentum in pseudopotentials (lmaxx) =  3

     Subspace diagonalization in iterative solution of the eigenvalue problem:
     a serial algorithm will be used

     Found symmetry operation: I + (  0.0000  0.5000 -0.5000)
     This is a supercell, fractional translations are disabled

     Parallelization info
     --------------------
     sticks:   dense  smooth     PW     G-vecs:    dense   smooth      PW
     Min         411     138     38                25186     4848     731
     Max         413     139     39                25189     4851     735
     Sum        6589    2209    621               403011    77589   11733



     bravais-lattice index     =            0
     lattice parameter (alat)  =       8.7604  a.u.
     unit-cell volume          =     672.3117 (a.u.)^3
     number of atoms/cell      =            8
     number of atomic types    =            2
     number of electrons       =       132.00
     number of Kohn-Sham states=           79
     kinetic-energy cutoff     =      90.0000  Ry
     charge density cutoff     =    1080.0000  Ry
     scf convergence threshold =      1.0E-08
     mixing beta               =       0.2000
     number of iterations used =            8  plain     mixing
     energy convergence thresh.=      1.0E-05
     force convergence thresh. =      1.0E-04
     Exchange-correlation=  SLA  PW   PBX  PBC
                           (   1   4   3   4   0   0   0)
     nstep                     =          100


     celldm(1)=   8.760392  celldm(2)=   0.000000  celldm(3)=   0.000000
     celldm(4)=   0.000000  celldm(5)=   0.000000  celldm(6)=   0.000000

     crystal axes: (cart. coord. in units of alat)
               a(1) = (   1.000000   0.000000   0.000000 )  
               a(2) = (   0.000000   1.000000   0.000000 )  
               a(3) = (   0.000000   0.005000   1.000000 )  

     reciprocal axes: (cart. coord. in units 2 pi/alat)
               b(1) = (  1.000000  0.000000  0.000000 )  
               b(2) = (  0.000000  1.000000 -0.005000 )  
               b(3) = (  0.000000  0.000000  1.000000 )  


     PseudoPot. # 1 for Ni read from file:
     /opt/QEpot/SSSP_efficiency_pseudos/ni_pbe_v1.4.uspp.F.UPF
     MD5 check sum: 1ee80287db30b12d2bc1f57a5b5d6409
     Pseudo is Ultrasoft + core correction, Zval = 18.0
     Generated by new atomic code, or converted to UPF format
     Using radial grid of  865 points,  6 beta functions with: 
                l(1) =   0
                l(2) =   0
                l(3) =   1
                l(4) =   1
                l(5) =   2
                l(6) =   2
     Q(r) pseudized with 10 coefficients,  rinner =    0.980   0.980   0.980
                                                       0.980   0.980

     PseudoPot. # 2 for Mn read from file:
     /opt/QEpot/SSSP_efficiency_pseudos/mn_pbe_v1.5.uspp.F.UPF
     MD5 check sum: 82ef2b46521d7a7d9e736dc3972e4928
     Pseudo is Ultrasoft + core correction, Zval = 15.0
     Generated by new atomic code, or converted to UPF format
     Using radial grid of  859 points,  6 beta functions with: 
                l(1) =   0
                l(2) =   0
                l(3) =   1
                l(4) =   1
                l(5) =   2
                l(6) =   2
     Q(r) pseudized with  8 coefficients,  rinner =    0.950   0.950   0.950
                                                       0.950   0.950

     atomic species   valence    mass     pseudopotential
        Ni            18.00    58.69300     Ni( 1.00)
        Mn            15.00    54.93800     Mn( 1.00)

     Starting magnetic structure 
     atomic species   magnetization
        Ni           0.000
        Mn           0.000

     No symmetry found



   Cartesian axes

     site n.     atom                  positions (alat units)
         1           Ni  tau(   1) = (   0.0010288   0.4991049   0.0008814  )
         2           Mn  tau(   2) = (   0.5010288   0.0016049   0.5008814  )
         3           Ni  tau(   3) = (   0.0010288   0.0016049   0.5008814  )
         4           Mn  tau(   4) = (   0.5010288   0.4991049   0.0008814  )
         5           Ni  tau(   5) = (   0.4984467   0.0002909  -0.0015951  )
         6           Mn  tau(   6) = (   0.0010288   0.5016049   0.5008814  )
         7           Ni  tau(   7) = (   0.4984467   0.5027909   0.4984049  )
         8           Mn  tau(   8) = (   0.0010288  -0.0008951   0.0008814  )

     number of k points=   112  Gaussian smearing, width (Ry)=  0.0100

     Number of k-points >= 100: set verbosity='high' to print them.

     Dense  grid:   403011 G-vectors     FFT dimensions: (  96,  96,  96)

     Smooth grid:    77589 G-vectors     FFT dimensions: (  54,  54,  54)

     Estimated max dynamical RAM per process >     273.20 MB

     Estimated total dynamical RAM >       4.27 GB

     Check: negative core charge=   -0.000015
     Generating pointlists ...
     new r_m :   0.2052 (alat units)  1.7975 (a.u.) for type    1
     new r_m :   0.2052 (alat units)  1.7975 (a.u.) for type    2

     Initial potential from superposition of free atoms

     starting charge  121.99966, renormalised to  132.00000
     Starting wfcs are  104 randomized atomic wfcs

     total cpu time spent up to now is       17.1 secs

     Self-consistent Calculation

     iteration #  1     ecut=    90.00 Ry     beta= 0.20
     Davidson diagonalization with overlap
     ethr =  1.00E-02,  avg # of iterations =  3.1

     total cpu time spent up to now is       62.2 secs

     total energy              =   -2191.97418264 Ry
     estimated scf accuracy    <     151.90754490 Ry

     total magnetization       =     0.00 Bohr mag/cell
     absolute magnetization    =     0.01 Bohr mag/cell

     iteration #  2     ecut=    90.00 Ry     beta= 0.20
     Davidson diagonalization with overlap
     ethr =  1.00E-02,  avg # of iterations =  4.4

     total cpu time spent up to now is      109.7 secs

     total energy              =   -2215.79555408 Ry
     estimated scf accuracy    <      63.77968339 Ry

     total magnetization       =    -0.01 Bohr mag/cell
     absolute magnetization    =     0.01 Bohr mag/cell

     iteration #  3     ecut=    90.00 Ry     beta= 0.20
     Davidson diagonalization with overlap
     ethr =  1.00E-02,  avg # of iterations =  4.0

     total cpu time spent up to now is      149.2 secs

     total energy              =   -2212.48033152 Ry
     estimated scf accuracy    <      13.38076598 Ry

     total magnetization       =     0.00 Bohr mag/cell
     absolute magnetization    =     0.02 Bohr mag/cell

     iteration #  4     ecut=    90.00 Ry     beta= 0.20
     Davidson diagonalization with overlap
     ethr =  1.00E-02,  avg # of iterations =  4.2

     total cpu time spent up to now is      191.5 secs

     total energy              =   -2209.35027970 Ry
     estimated scf accuracy    <     120.25686384 Ry

     total magnetization       =     0.00 Bohr mag/cell
     absolute magnetization    =     0.01 Bohr mag/cell

     iteration #  5     ecut=    90.00 Ry     beta= 0.20
     Davidson diagonalization with overlap
     ethr =  1.00E-02,  avg # of iterations =  3.3

     total cpu time spent up to now is      230.5 secs

     total energy              =   -2217.24710471 Ry
     estimated scf accuracy    <       4.08780035 Ry

     total magnetization       =     0.00 Bohr mag/cell
     absolute magnetization    =     0.01 Bohr mag/cell

     iteration #  6     ecut=    90.00 Ry     beta= 0.20
     Davidson diagonalization with overlap
     ethr =  3.10E-03,  avg # of iterations =  1.2

     total cpu time spent up to now is      260.1 secs

     total energy              =   -2217.35445259 Ry
     estimated scf accuracy    <       1.13920004 Ry

     total magnetization       =     0.00 Bohr mag/cell
     absolute magnetization    =     0.01 Bohr mag/cell

     iteration #  7     ecut=    90.00 Ry     beta= 0.20
     Davidson diagonalization with overlap
     ethr =  8.63E-04,  avg # of iterations =  1.4

     total cpu time spent up to now is      290.4 secs

     total energy              =   -2217.36403188 Ry
     estimated scf accuracy    <       1.31289696 Ry

     total magnetization       =     0.00 Bohr mag/cell
     absolute magnetization    =     0.01 Bohr mag/cell

     iteration #  8     ecut=    90.00 Ry     beta= 0.20
     Davidson diagonalization with overlap
     ethr =  8.63E-04,  avg # of iterations =  1.0

     total cpu time spent up to now is      319.8 secs

     total energy              =   -2217.31609499 Ry
     estimated scf accuracy    <       1.12192196 Ry

     total magnetization       =    -0.00 Bohr mag/cell
     absolute magnetization    =     0.01 Bohr mag/cell

     iteration #  9     ecut=    90.00 Ry     beta= 0.20
     Davidson diagonalization with overlap
     ethr =  8.50E-04,  avg # of iterations =  1.0

     total cpu time spent up to now is      349.3 secs

     total energy              =   -2217.27532739 Ry
     estimated scf accuracy    <       0.39524424 Ry

     total magnetization       =    -0.00 Bohr mag/cell
     absolute magnetization    =     0.01 Bohr mag/cell

     iteration # 10     ecut=    90.00 Ry     beta= 0.20
     Davidson diagonalization with overlap
     ethr =  2.99E-04,  avg # of iterations =  1.4

     total cpu time spent up to now is      380.2 secs

     total energy              =   -2217.32075202 Ry
     estimated scf accuracy    <       0.18580324 Ry

     total magnetization       =    -0.00 Bohr mag/cell
     absolute magnetization    =     0.02 Bohr mag/cell

     iteration # 11     ecut=    90.00 Ry     beta= 0.20
     Davidson diagonalization with overlap
     ethr =  1.41E-04,  avg # of iterations =  1.1

     total cpu time spent up to now is      410.2 secs

     total energy              =   -2217.30153307 Ry
     estimated scf accuracy    <       0.39683245 Ry

     total magnetization       =    -0.00 Bohr mag/cell
     absolute magnetization    =     0.02 Bohr mag/cell

     iteration # 12     ecut=    90.00 Ry     beta= 0.20
     Davidson diagonalization with overlap
     ethr =  1.41E-04,  avg # of iterations =  1.0

     total cpu time spent up to now is      439.8 secs

     total energy              =   -2217.31305745 Ry
     estimated scf accuracy    <       0.02897407 Ry

     total magnetization       =    -0.00 Bohr mag/cell
     absolute magnetization    =     0.02 Bohr mag/cell

     iteration # 13     ecut=    90.00 Ry     beta= 0.20
     Davidson diagonalization with overlap
     ethr =  2.20E-05,  avg # of iterations =  1.6

     total cpu time spent up to now is      470.8 secs

     total energy              =   -2217.29709928 Ry
     estimated scf accuracy    <       0.11234064 Ry

     total magnetization       =    -0.00 Bohr mag/cell
     absolute magnetization    =     0.01 Bohr mag/cell

     iteration # 14     ecut=    90.00 Ry     beta= 0.20
     Davidson diagonalization with overlap
     ethr =  2.20E-05,  avg # of iterations =  2.5

     total cpu time spent up to now is      507.0 secs

     total energy              =   -2217.31024141 Ry
     estimated scf accuracy    <       0.12635949 Ry

     total magnetization       =    -0.00 Bohr mag/cell
     absolute magnetization    =     0.02 Bohr mag/cell

     iteration # 15     ecut=    90.00 Ry     beta= 0.20
     Davidson diagonalization with overlap
     ethr =  2.20E-05,  avg # of iterations =  1.0

     total cpu time spent up to now is      536.6 secs

     total energy              =   -2217.31137369 Ry
     estimated scf accuracy    <       0.03633614 Ry

     total magnetization       =    -0.00 Bohr mag/cell
     absolute magnetization    =     0.03 Bohr mag/cell

     iteration # 16     ecut=    90.00 Ry     beta= 0.20
     Davidson diagonalization with overlap
     ethr =  2.20E-05,  avg # of iterations =  1.0

     total cpu time spent up to now is      566.3 secs

     total energy              =   -2217.31098323 Ry
     estimated scf accuracy    <       0.03592638 Ry

     total magnetization       =    -0.00 Bohr mag/cell
     absolute magnetization    =     0.03 Bohr mag/cell

     iteration # 17     ecut=    90.00 Ry     beta= 0.20
     Davidson diagonalization with overlap
     ethr =  2.20E-05,  avg # of iterations =  1.0

     total cpu time spent up to now is      596.0 secs

     total energy              =   -2217.30852030 Ry
     estimated scf accuracy    <       0.02976615 Ry

     total magnetization       =    -0.00 Bohr mag/cell
     absolute magnetization    =     0.03 Bohr mag/cell

     iteration # 18     ecut=    90.00 Ry     beta= 0.20
     Davidson diagonalization with overlap
     ethr =  2.20E-05,  avg # of iterations =  1.0

     total cpu time spent up to now is      626.6 secs

     total energy              =   -2217.30971897 Ry
     estimated scf accuracy    <       0.00180785 Ry

     total magnetization       =    -0.00 Bohr mag/cell
     absolute magnetization    =     0.05 Bohr mag/cell

     iteration # 19     ecut=    90.00 Ry     beta= 0.20
     Davidson diagonalization with overlap
     ethr =  1.37E-06,  avg # of iterations =  2.4

     total cpu time spent up to now is      660.6 secs

     total energy              =   -2217.30972789 Ry
     estimated scf accuracy    <       0.00132507 Ry

     total magnetization       =    -0.00 Bohr mag/cell
     absolute magnetization    =     0.06 Bohr mag/cell

     iteration # 20     ecut=    90.00 Ry     beta= 0.20
     Davidson diagonalization with overlap
     ethr =  1.00E-06,  avg # of iterations =  1.5

     total cpu time spent up to now is      691.2 secs

     total energy              =   -2217.30973542 Ry
     estimated scf accuracy    <       0.00042060 Ry

     total magnetization       =    -0.00 Bohr mag/cell
     absolute magnetization    =     0.07 Bohr mag/cell

     iteration # 21     ecut=    90.00 Ry     beta= 0.20
     Davidson diagonalization with overlap
     ethr =  3.19E-07,  avg # of iterations =  1.1

     total cpu time spent up to now is      721.3 secs

     total energy              =   -2217.30970844 Ry
     estimated scf accuracy    <       0.00284652 Ry

     total magnetization       =    -0.00 Bohr mag/cell
     absolute magnetization    =     0.08 Bohr mag/cell

     iteration # 22     ecut=    90.00 Ry     beta= 0.20
     Davidson diagonalization with overlap
     ethr =  3.19E-07,  avg # of iterations =  1.0

     total cpu time spent up to now is      751.1 secs

     total energy              =   -2217.30974103 Ry
     estimated scf accuracy    <       0.00142607 Ry

     total magnetization       =    -0.01 Bohr mag/cell
     absolute magnetization    =     0.10 Bohr mag/cell

     iteration # 23     ecut=    90.00 Ry     beta= 0.20
     Davidson diagonalization with overlap
     ethr =  3.19E-07,  avg # of iterations =  1.1

     total cpu time spent up to now is      781.0 secs

     total energy              =   -2217.30977263 Ry
     estimated scf accuracy    <       0.00006883 Ry

     total magnetization       =    -0.01 Bohr mag/cell
     absolute magnetization    =     0.11 Bohr mag/cell

     iteration # 24     ecut=    90.00 Ry     beta= 0.20
     Davidson diagonalization with overlap
     ethr =  5.21E-08,  avg # of iterations =  1.1

     total cpu time spent up to now is      811.0 secs

     total energy              =   -2217.30976931 Ry
     estimated scf accuracy    <       0.00009602 Ry

     total magnetization       =    -0.01 Bohr mag/cell
     absolute magnetization    =     0.12 Bohr mag/cell

     iteration # 25     ecut=    90.00 Ry     beta= 0.20
     Davidson diagonalization with overlap
     ethr =  5.21E-08,  avg # of iterations =  1.2

     total cpu time spent up to now is      841.0 secs

     total energy              =   -2217.30976428 Ry
     estimated scf accuracy    <       0.00072581 Ry

     total magnetization       =    -0.01 Bohr mag/cell
     absolute magnetization    =     0.12 Bohr mag/cell

     iteration # 26     ecut=    90.00 Ry     beta= 0.20
     Davidson diagonalization with overlap
     ethr =  5.21E-08,  avg # of iterations =  1.0

     total cpu time spent up to now is      870.8 secs

     total energy              =   -2217.30977238 Ry
     estimated scf accuracy    <       0.00018268 Ry

     total magnetization       =    -0.01 Bohr mag/cell
     absolute magnetization    =     0.12 Bohr mag/cell

     iteration # 27     ecut=    90.00 Ry     beta= 0.20
     Davidson diagonalization with overlap
     ethr =  5.21E-08,  avg # of iterations =  1.0

     total cpu time spent up to now is      900.6 secs

     total energy              =   -2217.30977971 Ry
     estimated scf accuracy    <       0.00007879 Ry

     total magnetization       =    -0.01 Bohr mag/cell
     absolute magnetization    =     0.12 Bohr mag/cell

     iteration # 28     ecut=    90.00 Ry     beta= 0.20
     Davidson diagonalization with overlap
     ethr =  5.21E-08,  avg # of iterations =  1.0

     total cpu time spent up to now is      930.3 secs

     total energy              =   -2217.30977689 Ry
     estimated scf accuracy    <       0.00009017 Ry

     total magnetization       =    -0.01 Bohr mag/cell
     absolute magnetization    =     0.14 Bohr mag/cell

     iteration # 29     ecut=    90.00 Ry     beta= 0.20
     Davidson diagonalization with overlap
     ethr =  5.21E-08,  avg # of iterations =  1.0

     total cpu time spent up to now is      960.0 secs

     total energy              =   -2217.30976268 Ry
     estimated scf accuracy    <       0.00011995 Ry

     total magnetization       =    -0.01 Bohr mag/cell
     absolute magnetization    =     0.13 Bohr mag/cell

     iteration # 30     ecut=    90.00 Ry     beta= 0.20
     Davidson diagonalization with overlap
     ethr =  5.21E-08,  avg # of iterations =  1.0

     total cpu time spent up to now is      989.8 secs

     total energy              =   -2217.30973176 Ry
     estimated scf accuracy    <       0.00015949 Ry

     total magnetization       =    -0.01 Bohr mag/cell
     absolute magnetization    =     0.10 Bohr mag/cell

     iteration # 31     ecut=    90.00 Ry     beta= 0.20
     Davidson diagonalization with overlap
     ethr =  5.21E-08,  avg # of iterations =  1.2

     total cpu time spent up to now is     1019.9 secs

     total energy              =   -2217.30975046 Ry
     estimated scf accuracy    <       0.00009974 Ry

     total magnetization       =     0.00 Bohr mag/cell
     absolute magnetization    =     0.02 Bohr mag/cell

     iteration # 32     ecut=    90.00 Ry     beta= 0.20
     Davidson diagonalization with overlap
     ethr =  5.21E-08,  avg # of iterations =  1.0

     total cpu time spent up to now is     1049.7 secs

     total energy              =   -2217.30975184 Ry
     estimated scf accuracy    <       0.00001106 Ry

     total magnetization       =     0.00 Bohr mag/cell
     absolute magnetization    =     0.01 Bohr mag/cell

     iteration # 33     ecut=    90.00 Ry     beta= 0.20
     Davidson diagonalization with overlap
     ethr =  8.38E-09,  avg # of iterations =  1.4

     total cpu time spent up to now is     1080.8 secs

     total energy              =   -2217.30975058 Ry
     estimated scf accuracy    <       0.00011351 Ry

     total magnetization       =     0.00 Bohr mag/cell
     absolute magnetization    =     0.01 Bohr mag/cell

     iteration # 34     ecut=    90.00 Ry     beta= 0.20
     Davidson diagonalization with overlap
     ethr =  8.38E-09,  avg # of iterations =  1.0

     total cpu time spent up to now is     1110.6 secs

     total energy              =   -2217.30975254 Ry
     estimated scf accuracy    <       0.00000320 Ry

     total magnetization       =     0.00 Bohr mag/cell
     absolute magnetization    =     0.00 Bohr mag/cell

     iteration # 35     ecut=    90.00 Ry     beta= 0.20
     Davidson diagonalization with overlap
     ethr =  2.43E-09,  avg # of iterations =  1.1

     total cpu time spent up to now is     1140.5 secs

     total energy              =   -2217.30975278 Ry
     estimated scf accuracy    <       0.00000079 Ry

     total magnetization       =     0.00 Bohr mag/cell
     absolute magnetization    =     0.01 Bohr mag/cell

     iteration # 36     ecut=    90.00 Ry     beta= 0.20
     Davidson diagonalization with overlap
     ethr =  5.97E-10,  avg # of iterations =  1.1

     total cpu time spent up to now is     1170.5 secs

     total energy              =   -2217.30975269 Ry
     estimated scf accuracy    <       0.00000451 Ry

     total magnetization       =     0.00 Bohr mag/cell
     absolute magnetization    =     0.01 Bohr mag/cell

     iteration # 37     ecut=    90.00 Ry     beta= 0.20
     Davidson diagonalization with overlap
     ethr =  5.97E-10,  avg # of iterations =  1.1

     total cpu time spent up to now is     1200.4 secs

     total energy              =   -2217.30975276 Ry
     estimated scf accuracy    <       0.00000138 Ry

     total magnetization       =     0.00 Bohr mag/cell
     absolute magnetization    =     0.01 Bohr mag/cell

     iteration # 38     ecut=    90.00 Ry     beta= 0.20
     Davidson diagonalization with overlap
     ethr =  5.97E-10,  avg # of iterations =  1.0

     total cpu time spent up to now is     1230.2 secs

     total energy              =   -2217.30975284 Ry
     estimated scf accuracy    <       0.00000321 Ry

     total magnetization       =     0.00 Bohr mag/cell
     absolute magnetization    =     0.01 Bohr mag/cell

     iteration # 39     ecut=    90.00 Ry     beta= 0.20
     Davidson diagonalization with overlap
     ethr =  5.97E-10,  avg # of iterations =  1.0

     total cpu time spent up to now is     1259.9 secs

     total energy              =   -2217.30975294 Ry
     estimated scf accuracy    <       0.00000028 Ry

     total magnetization       =     0.01 Bohr mag/cell
     absolute magnetization    =     0.01 Bohr mag/cell

     iteration # 40     ecut=    90.00 Ry     beta= 0.20
     Davidson diagonalization with overlap
     ethr =  2.12E-10,  avg # of iterations =  1.0

     total cpu time spent up to now is     1289.5 secs

     total energy              =   -2217.30975295 Ry
     estimated scf accuracy    <       0.00000020 Ry

     total magnetization       =     0.01 Bohr mag/cell
     absolute magnetization    =     0.01 Bohr mag/cell

     iteration # 41     ecut=    90.00 Ry     beta= 0.20
     Davidson diagonalization with overlap
     ethr =  1.54E-10,  avg # of iterations =  1.0

     total cpu time spent up to now is     1319.3 secs

     total energy              =   -2217.30975295 Ry
     estimated scf accuracy    <       0.00000064 Ry

     total magnetization       =     0.01 Bohr mag/cell
     absolute magnetization    =     0.01 Bohr mag/cell

     iteration # 42     ecut=    90.00 Ry     beta= 0.20
     Davidson diagonalization with overlap
     ethr =  1.54E-10,  avg # of iterations =  1.0

     total cpu time spent up to now is     1349.1 secs

     total energy              =   -2217.30975296 Ry
     estimated scf accuracy    <       0.00000027 Ry

     total magnetization       =     0.01 Bohr mag/cell
     absolute magnetization    =     0.01 Bohr mag/cell

     iteration # 43     ecut=    90.00 Ry     beta= 0.20
     Davidson diagonalization with overlap
     ethr =  1.54E-10,  avg # of iterations =  1.0

     total cpu time spent up to now is     1378.8 secs

     total energy              =   -2217.30975296 Ry
     estimated scf accuracy    <       0.00000029 Ry

     total magnetization       =     0.01 Bohr mag/cell
     absolute magnetization    =     0.01 Bohr mag/cell

     iteration # 44     ecut=    90.00 Ry     beta= 0.20
     Davidson diagonalization with overlap
     ethr =  1.54E-10,  avg # of iterations =  1.0

     total cpu time spent up to now is     1408.5 secs

     total energy              =   -2217.30975295 Ry
     estimated scf accuracy    <       0.00000028 Ry

     total magnetization       =     0.01 Bohr mag/cell
     absolute magnetization    =     0.01 Bohr mag/cell

     iteration # 45     ecut=    90.00 Ry     beta= 0.20
     Davidson diagonalization with overlap
     ethr =  1.54E-10,  avg # of iterations =  1.0

     total cpu time spent up to now is     1438.2 secs

     total energy              =   -2217.30975298 Ry
     estimated scf accuracy    <       0.00000027 Ry

     total magnetization       =     0.01 Bohr mag/cell
     absolute magnetization    =     0.01 Bohr mag/cell

     iteration # 46     ecut=    90.00 Ry     beta= 0.20
     Davidson diagonalization with overlap
     ethr =  1.54E-10,  avg # of iterations =  1.0

     total cpu time spent up to now is     1467.9 secs

     total energy              =   -2217.30975298 Ry
     estimated scf accuracy    <       0.00000040 Ry

     total magnetization       =     0.01 Bohr mag/cell
     absolute magnetization    =     0.01 Bohr mag/cell

     iteration # 47     ecut=    90.00 Ry     beta= 0.20
     Davidson diagonalization with overlap
     ethr =  1.54E-10,  avg # of iterations =  1.0

     total cpu time spent up to now is     1497.6 secs

     total energy              =   -2217.30975298 Ry
     estimated scf accuracy    <       0.00000035 Ry

     total magnetization       =     0.01 Bohr mag/cell
     absolute magnetization    =     0.01 Bohr mag/cell

     iteration # 48     ecut=    90.00 Ry     beta= 0.20
     Davidson diagonalization with overlap
     ethr =  1.54E-10,  avg # of iterations =  1.0

     total cpu time spent up to now is     1527.3 secs

     total energy              =   -2217.30975296 Ry
     estimated scf accuracy    <       0.00000041 Ry

     total magnetization       =     0.01 Bohr mag/cell
     absolute magnetization    =     0.01 Bohr mag/cell

     iteration # 49     ecut=    90.00 Ry     beta= 0.20
     Davidson diagonalization with overlap
     ethr =  1.54E-10,  avg # of iterations =  1.0

     total cpu time spent up to now is     1557.0 secs

     total energy              =   -2217.30975289 Ry
     estimated scf accuracy    <       0.00000074 Ry

     total magnetization       =     0.01 Bohr mag/cell
     absolute magnetization    =     0.01 Bohr mag/cell

     iteration # 50     ecut=    90.00 Ry     beta= 0.20
     Davidson diagonalization with overlap
     ethr =  1.54E-10,  avg # of iterations =  1.0

     total cpu time spent up to now is     1586.8 secs

     total energy              =   -2217.30975292 Ry
     estimated scf accuracy    <       0.00000057 Ry

     total magnetization       =     0.01 Bohr mag/cell
     absolute magnetization    =     0.01 Bohr mag/cell

     iteration # 51     ecut=    90.00 Ry     beta= 0.20
     Davidson diagonalization with overlap
     ethr =  1.54E-10,  avg # of iterations =  1.0

     total cpu time spent up to now is     1616.5 secs

     total energy              =   -2217.30975293 Ry
     estimated scf accuracy    <       0.00000026 Ry

     total magnetization       =     0.01 Bohr mag/cell
     absolute magnetization    =     0.01 Bohr mag/cell

     iteration # 52     ecut=    90.00 Ry     beta= 0.20
     Davidson diagonalization with overlap
     ethr =  1.54E-10,  avg # of iterations =  1.0

     total cpu time spent up to now is     1646.2 secs

     total energy              =   -2217.30975294 Ry
     estimated scf accuracy    <       0.00000029 Ry

     total magnetization       =     0.01 Bohr mag/cell
     absolute magnetization    =     0.01 Bohr mag/cell

     iteration # 53     ecut=    90.00 Ry     beta= 0.20
     Davidson diagonalization with overlap
     ethr =  1.54E-10,  avg # of iterations =  1.0

     total cpu time spent up to now is     1675.9 secs

     total energy              =   -2217.30975294 Ry
     estimated scf accuracy    <       0.00000078 Ry

     total magnetization       =     0.01 Bohr mag/cell
     absolute magnetization    =     0.01 Bohr mag/cell

     iteration # 54     ecut=    90.00 Ry     beta= 0.20
     Davidson diagonalization with overlap
     ethr =  1.54E-10,  avg # of iterations =  1.0

     total cpu time spent up to now is     1705.6 secs

     total energy              =   -2217.30975298 Ry
     estimated scf accuracy    <       0.00000029 Ry

     total magnetization       =     0.01 Bohr mag/cell
     absolute magnetization    =     0.01 Bohr mag/cell

     iteration # 55     ecut=    90.00 Ry     beta= 0.20
     Davidson diagonalization with overlap
     ethr =  1.54E-10,  avg # of iterations =  1.0

     total cpu time spent up to now is     1735.3 secs

     total energy              =   -2217.30975299 Ry
     estimated scf accuracy    <       0.00000060 Ry

     total magnetization       =     0.01 Bohr mag/cell
     absolute magnetization    =     0.01 Bohr mag/cell

     iteration # 56     ecut=    90.00 Ry     beta= 0.20
     Davidson diagonalization with overlap
     ethr =  1.54E-10,  avg # of iterations =  1.0

     total cpu time spent up to now is     1765.0 secs

     total energy              =   -2217.30975301 Ry
     estimated scf accuracy    <       0.00000056 Ry

     total magnetization       =     0.01 Bohr mag/cell
     absolute magnetization    =     0.01 Bohr mag/cell

     iteration # 57     ecut=    90.00 Ry     beta= 0.20
     Davidson diagonalization with overlap
     ethr =  1.54E-10,  avg # of iterations =  1.0

     total cpu time spent up to now is     1794.7 secs

     total energy              =   -2217.30975295 Ry
     estimated scf accuracy    <       0.00000071 Ry

     total magnetization       =     0.01 Bohr mag/cell
     absolute magnetization    =     0.01 Bohr mag/cell

     iteration # 58     ecut=    90.00 Ry     beta= 0.20
     Davidson diagonalization with overlap
     ethr =  1.54E-10,  avg # of iterations =  1.0

     total cpu time spent up to now is     1824.4 secs

     total energy              =   -2217.30975290 Ry
     estimated scf accuracy    <       0.00000134 Ry

     total magnetization       =     0.01 Bohr mag/cell
     absolute magnetization    =     0.01 Bohr mag/cell

     iteration # 59     ecut=    90.00 Ry     beta= 0.20
     Davidson diagonalization with overlap
     ethr =  1.54E-10,  avg # of iterations =  1.1

     total cpu time spent up to now is     1854.3 secs

     total energy              =   -2217.30975283 Ry
     estimated scf accuracy    <       0.00000169 Ry

     total magnetization       =     0.01 Bohr mag/cell
     absolute magnetization    =     0.01 Bohr mag/cell

     iteration # 60     ecut=    90.00 Ry     beta= 0.20
     Davidson diagonalization with overlap
     ethr =  1.54E-10,  avg # of iterations =  1.0

     total cpu time spent up to now is     1884.0 secs

     total energy              =   -2217.30975286 Ry
     estimated scf accuracy    <       0.00000016 Ry

     total magnetization       =     0.00 Bohr mag/cell
     absolute magnetization    =     0.01 Bohr mag/cell

     iteration # 61     ecut=    90.00 Ry     beta= 0.20
     Davidson diagonalization with overlap
     ethr =  1.21E-10,  avg # of iterations =  1.0

     total cpu time spent up to now is     1913.7 secs

     total energy              =   -2217.30975288 Ry
     estimated scf accuracy    <       0.00000012 Ry

     total magnetization       =     0.00 Bohr mag/cell
     absolute magnetization    =     0.01 Bohr mag/cell

     iteration # 62     ecut=    90.00 Ry     beta= 0.20
     Davidson diagonalization with overlap
     ethr =  8.97E-11,  avg # of iterations =  1.6

     total cpu time spent up to now is     1945.5 secs

     total energy              =   -2217.30975286 Ry
     estimated scf accuracy    <       0.00000076 Ry

     total magnetization       =     0.00 Bohr mag/cell
     absolute magnetization    =     0.01 Bohr mag/cell

     iteration # 63     ecut=    90.00 Ry     beta= 0.20
     Davidson diagonalization with overlap
     ethr =  8.97E-11,  avg # of iterations =  1.3

     total cpu time spent up to now is     1976.3 secs

     total energy              =   -2217.30975289 Ry
     estimated scf accuracy    <       0.00000021 Ry

     total magnetization       =    -0.00 Bohr mag/cell
     absolute magnetization    =     0.01 Bohr mag/cell

     iteration # 64     ecut=    90.00 Ry     beta= 0.20
     Davidson diagonalization with overlap
     ethr =  8.97E-11,  avg # of iterations =  1.0

     total cpu time spent up to now is     2006.0 secs

     total energy              =   -2217.30975291 Ry
     estimated scf accuracy    <       0.00000017 Ry

     total magnetization       =     0.00 Bohr mag/cell
     absolute magnetization    =     0.01 Bohr mag/cell

     iteration # 65     ecut=    90.00 Ry     beta= 0.20
     Davidson diagonalization with overlap
     ethr =  8.97E-11,  avg # of iterations =  1.0

     total cpu time spent up to now is     2035.7 secs

     total energy              =   -2217.30975292 Ry
     estimated scf accuracy    <       0.00000007 Ry

     total magnetization       =     0.00 Bohr mag/cell
     absolute magnetization    =     0.01 Bohr mag/cell

     iteration # 66     ecut=    90.00 Ry     beta= 0.20
     Davidson diagonalization with overlap
     ethr =  5.02E-11,  avg # of iterations =  1.0

     total cpu time spent up to now is     2065.4 secs

     total energy              =   -2217.30975292 Ry
     estimated scf accuracy    <       0.00000004 Ry

     total magnetization       =     0.00 Bohr mag/cell
     absolute magnetization    =     0.01 Bohr mag/cell

     iteration # 67     ecut=    90.00 Ry     beta= 0.20
     Davidson diagonalization with overlap
     ethr =  2.73E-11,  avg # of iterations =  1.0

     total cpu time spent up to now is     2095.0 secs

     total energy              =   -2217.30975292 Ry
     estimated scf accuracy    <       0.00000003 Ry

     total magnetization       =     0.00 Bohr mag/cell
     absolute magnetization    =     0.01 Bohr mag/cell

     iteration # 68     ecut=    90.00 Ry     beta= 0.20
     Davidson diagonalization with overlap
     ethr =  2.01E-11,  avg # of iterations =  1.0

     total cpu time spent up to now is     2124.6 secs

     total energy              =   -2217.30975292 Ry
     estimated scf accuracy    <       0.00000014 Ry

     total magnetization       =     0.00 Bohr mag/cell
     absolute magnetization    =     0.01 Bohr mag/cell

     iteration # 69     ecut=    90.00 Ry     beta= 0.20
     Davidson diagonalization with overlap
     ethr =  2.01E-11,  avg # of iterations =  1.0

     total cpu time spent up to now is     2154.2 secs

     total energy              =   -2217.30975293 Ry
     estimated scf accuracy    <       0.00000004 Ry

     total magnetization       =     0.00 Bohr mag/cell
     absolute magnetization    =     0.01 Bohr mag/cell

     iteration # 70     ecut=    90.00 Ry     beta= 0.20
     Davidson diagonalization with overlap
     ethr =  2.01E-11,  avg # of iterations =  1.0

     total cpu time spent up to now is     2183.8 secs

     total energy              =   -2217.30975292 Ry
     estimated scf accuracy    <       0.00000002 Ry

     total magnetization       =     0.00 Bohr mag/cell
     absolute magnetization    =     0.01 Bohr mag/cell

     iteration # 71     ecut=    90.00 Ry     beta= 0.20
     Davidson diagonalization with overlap
     ethr =  1.89E-11,  avg # of iterations =  1.0

     total cpu time spent up to now is     2213.4 secs

     total energy              =   -2217.30975292 Ry
     estimated scf accuracy    <       0.00000004 Ry

     total magnetization       =     0.00 Bohr mag/cell
     absolute magnetization    =     0.01 Bohr mag/cell

     iteration # 72     ecut=    90.00 Ry     beta= 0.20
     Davidson diagonalization with overlap
     ethr =  1.89E-11,  avg # of iterations =  1.0

     total cpu time spent up to now is     2243.0 secs

     total energy              =   -2217.30975292 Ry
     estimated scf accuracy    <       0.00000002 Ry

     total magnetization       =     0.00 Bohr mag/cell
     absolute magnetization    =     0.01 Bohr mag/cell

     iteration # 73     ecut=    90.00 Ry     beta= 0.20
     Davidson diagonalization with overlap
     ethr =  1.69E-11,  avg # of iterations =  1.0

     total cpu time spent up to now is     2272.6 secs

     total energy              =   -2217.30975292 Ry
     estimated scf accuracy    <       0.00000002 Ry

     total magnetization       =     0.00 Bohr mag/cell
     absolute magnetization    =     0.01 Bohr mag/cell

     iteration # 74     ecut=    90.00 Ry     beta= 0.20
     Davidson diagonalization with overlap
     ethr =  1.52E-11,  avg # of iterations =  1.0

     total cpu time spent up to now is     2302.2 secs

     total energy              =   -2217.30975292 Ry
     estimated scf accuracy    <       0.00000003 Ry

     total magnetization       =     0.00 Bohr mag/cell
     absolute magnetization    =     0.01 Bohr mag/cell

     iteration # 75     ecut=    90.00 Ry     beta= 0.20
     Davidson diagonalization with overlap
     ethr =  1.52E-11,  avg # of iterations =  1.0

     total cpu time spent up to now is     2331.8 secs

     total energy              =   -2217.30975292 Ry
     estimated scf accuracy    <       0.00000003 Ry

     total magnetization       =     0.00 Bohr mag/cell
     absolute magnetization    =     0.01 Bohr mag/cell

     iteration # 76     ecut=    90.00 Ry     beta= 0.20
     Davidson diagonalization with overlap
     ethr =  1.52E-11,  avg # of iterations =  1.0

     total cpu time spent up to now is     2361.4 secs

     total energy              =   -2217.30975291 Ry
     estimated scf accuracy    <       0.00000005 Ry

     total magnetization       =     0.00 Bohr mag/cell
     absolute magnetization    =     0.01 Bohr mag/cell

     iteration # 77     ecut=    90.00 Ry     beta= 0.20
     Davidson diagonalization with overlap
     ethr =  1.52E-11,  avg # of iterations =  1.0

     total cpu time spent up to now is     2390.9 secs

     total energy              =   -2217.30975290 Ry
     estimated scf accuracy    <       0.00000002 Ry

     total magnetization       =     0.00 Bohr mag/cell
     absolute magnetization    =     0.01 Bohr mag/cell

     iteration # 78     ecut=    90.00 Ry     beta= 0.20
     Davidson diagonalization with overlap
     ethr =  1.46E-11,  avg # of iterations =  1.0

     total cpu time spent up to now is     2420.6 secs

     total energy              =   -2217.30975291 Ry
     estimated scf accuracy    <       0.00000004 Ry

     total magnetization       =     0.00 Bohr mag/cell
     absolute magnetization    =     0.01 Bohr mag/cell

     iteration # 79     ecut=    90.00 Ry     beta= 0.20
     Davidson diagonalization with overlap
     ethr =  1.46E-11,  avg # of iterations =  1.0

     total cpu time spent up to now is     2450.2 secs

     total energy              =   -2217.30975291 Ry
     estimated scf accuracy    <       0.00000003 Ry

     total magnetization       =     0.00 Bohr mag/cell
     absolute magnetization    =     0.01 Bohr mag/cell

     iteration # 80     ecut=    90.00 Ry     beta= 0.20
     Davidson diagonalization with overlap
     ethr =  1.46E-11,  avg # of iterations =  1.0

     total cpu time spent up to now is     2479.7 secs

     total energy              =   -2217.30975291 Ry
     estimated scf accuracy    <       0.00000002 Ry

     total magnetization       =     0.00 Bohr mag/cell
     absolute magnetization    =     0.01 Bohr mag/cell

     iteration # 81     ecut=    90.00 Ry     beta= 0.20
     Davidson diagonalization with overlap
     ethr =  1.18E-11,  avg # of iterations =  1.0

     total cpu time spent up to now is     2509.3 secs

     total energy              =   -2217.30975291 Ry
     estimated scf accuracy    <       0.00000005 Ry

     total magnetization       =     0.00 Bohr mag/cell
     absolute magnetization    =     0.01 Bohr mag/cell

     iteration # 82     ecut=    90.00 Ry     beta= 0.20
     Davidson diagonalization with overlap
     ethr =  1.18E-11,  avg # of iterations =  1.0

     total cpu time spent up to now is     2538.9 secs

     total energy              =   -2217.30975291 Ry
     estimated scf accuracy    <       0.00000002 Ry

     total magnetization       =     0.00 Bohr mag/cell
     absolute magnetization    =     0.01 Bohr mag/cell

     iteration # 83     ecut=    90.00 Ry     beta= 0.20
     Davidson diagonalization with overlap
     ethr =  1.18E-11,  avg # of iterations =  1.0

     total cpu time spent up to now is     2568.4 secs

     total energy              =   -2217.30975292 Ry
     estimated scf accuracy    <       0.00000002 Ry

     total magnetization       =     0.00 Bohr mag/cell
     absolute magnetization    =     0.01 Bohr mag/cell

     iteration # 84     ecut=    90.00 Ry     beta= 0.20
     Davidson diagonalization with overlap
     ethr =  1.18E-11,  avg # of iterations =  1.0

     total cpu time spent up to now is     2597.9 secs

     total energy              =   -2217.30975292 Ry
     estimated scf accuracy    <       0.00000003 Ry

     total magnetization       =     0.00 Bohr mag/cell
     absolute magnetization    =     0.01 Bohr mag/cell

     iteration # 85     ecut=    90.00 Ry     beta= 0.20
     Davidson diagonalization with overlap
     ethr =  1.18E-11,  avg # of iterations =  1.0

     total cpu time spent up to now is     2627.5 secs

     total energy              =   -2217.30975292 Ry
     estimated scf accuracy    <       0.00000003 Ry

     total magnetization       =     0.00 Bohr mag/cell
     absolute magnetization    =     0.01 Bohr mag/cell

     iteration # 86     ecut=    90.00 Ry     beta= 0.20
     Davidson diagonalization with overlap
     ethr =  1.18E-11,  avg # of iterations =  1.0

     total cpu time spent up to now is     2657.0 secs

     total energy              =   -2217.30975292 Ry
     estimated scf accuracy    <       0.00000003 Ry

     total magnetization       =     0.00 Bohr mag/cell
     absolute magnetization    =     0.01 Bohr mag/cell

     iteration # 87     ecut=    90.00 Ry     beta= 0.20
     Davidson diagonalization with overlap
     ethr =  1.18E-11,  avg # of iterations =  1.0

     total cpu time spent up to now is     2686.5 secs

     total energy              =   -2217.30975292 Ry
     estimated scf accuracy    <       0.00000003 Ry

     total magnetization       =     0.00 Bohr mag/cell
     absolute magnetization    =     0.01 Bohr mag/cell

     iteration # 88     ecut=    90.00 Ry     beta= 0.20
     Davidson diagonalization with overlap
     ethr =  1.18E-11,  avg # of iterations =  1.0

     total cpu time spent up to now is     2716.0 secs

     total energy              =   -2217.30975289 Ry
     estimated scf accuracy    <       0.00000003 Ry

     total magnetization       =     0.00 Bohr mag/cell
     absolute magnetization    =     0.01 Bohr mag/cell

     iteration # 89     ecut=    90.00 Ry     beta= 0.20
     Davidson diagonalization with overlap
     ethr =  1.18E-11,  avg # of iterations =  1.5

     total cpu time spent up to now is     2747.2 secs

     total energy              =   -2217.30975290 Ry
     estimated scf accuracy    <       0.00000004 Ry

     total magnetization       =     0.00 Bohr mag/cell
     absolute magnetization    =     0.00 Bohr mag/cell

     iteration # 90     ecut=    90.00 Ry     beta= 0.20
     Davidson diagonalization with overlap
     ethr =  1.18E-11,  avg # of iterations =  1.0

     total cpu time spent up to now is     2776.8 secs

     total energy              =   -2217.30975288 Ry
     estimated scf accuracy    <       0.00000003 Ry

     total magnetization       =     0.00 Bohr mag/cell
     absolute magnetization    =     0.00 Bohr mag/cell

     iteration # 91     ecut=    90.00 Ry     beta= 0.20
     Davidson diagonalization with overlap
     ethr =  1.18E-11,  avg # of iterations =  2.0

     total cpu time spent up to now is     2809.6 secs

     total energy              =   -2217.30975287 Ry
     estimated scf accuracy    <       0.00000007 Ry

     total magnetization       =     0.00 Bohr mag/cell
     absolute magnetization    =     0.00 Bohr mag/cell

     iteration # 92     ecut=    90.00 Ry     beta= 0.20
     Davidson diagonalization with overlap
     ethr =  1.18E-11,  avg # of iterations =  1.5

     total cpu time spent up to now is     2840.9 secs

     total energy              =   -2217.30975288 Ry
     estimated scf accuracy    <       0.00000004 Ry

     total magnetization       =     0.00 Bohr mag/cell
     absolute magnetization    =     0.00 Bohr mag/cell

     iteration # 93     ecut=    90.00 Ry     beta= 0.20
     Davidson diagonalization with overlap
     ethr =  1.18E-11,  avg # of iterations =  1.0

     total cpu time spent up to now is     2870.4 secs

     total energy              =   -2217.30975288 Ry
     estimated scf accuracy    <       0.00000002 Ry

     total magnetization       =     0.00 Bohr mag/cell
     absolute magnetization    =     0.00 Bohr mag/cell

     iteration # 94     ecut=    90.00 Ry     beta= 0.20
     Davidson diagonalization with overlap
     ethr =  1.15E-11,  avg # of iterations =  1.0

     total cpu time spent up to now is     2900.0 secs

     total energy              =   -2217.30975288 Ry
     estimated scf accuracy    <       0.00000001 Ry

     total magnetization       =    -0.00 Bohr mag/cell
     absolute magnetization    =     0.00 Bohr mag/cell

     iteration # 95     ecut=    90.00 Ry     beta= 0.20
     Davidson diagonalization with overlap
     ethr =  8.28E-12,  avg # of iterations =  1.0

     total cpu time spent up to now is     2929.5 secs

     total energy              =   -2217.30975288 Ry
     estimated scf accuracy    <       0.00000001 Ry

     total magnetization       =    -0.00 Bohr mag/cell
     absolute magnetization    =     0.00 Bohr mag/cell

     iteration # 96     ecut=    90.00 Ry     beta= 0.20
     Davidson diagonalization with overlap
     ethr =  8.28E-12,  avg # of iterations =  1.0

     Magnetic moment per site:
     atom:    1    charge:   16.3656    magn:   -0.0001    constr:    0.0000
     atom:    2    charge:   12.9013    magn:   -0.0002    constr:    0.0000
     atom:    3    charge:   16.3657    magn:   -0.0001    constr:    0.0000
     atom:    4    charge:   12.9013    magn:   -0.0000    constr:    0.0000
     atom:    5    charge:   16.3657    magn:   -0.0001    constr:    0.0000
     atom:    6    charge:   12.9013    magn:   -0.0001    constr:    0.0000
     atom:    7    charge:   16.3658    magn:    0.0003    constr:    0.0000
     atom:    8    charge:   12.9014    magn:    0.0000    constr:    0.0000

     total cpu time spent up to now is     2959.0 secs

     End of self-consistent calculation

     Number of k-points >= 100: set verbosity='high' to print the bands.

     the Fermi energy is    16.2423 ev

!    total energy              =   -2217.30975288 Ry
     estimated scf accuracy    <          5.8E-09 Ry
     smearing contrib. (-TS)   =      -0.01992171 Ry
     internal energy E=F+TS    =   -2217.28983118 Ry

     The total energy is F=E-TS. E is the sum of the following terms:
     one-electron contribution =   -1244.28484766 Ry
     hartree contribution      =     692.88721770 Ry
     xc contribution           =    -247.92189007 Ry
     ewald contribution        =   -1417.97031114 Ry

     total magnetization       =    -0.00 Bohr mag/cell
     absolute magnetization    =     0.00 Bohr mag/cell

     convergence has been achieved in  96 iterations

     Forces acting on atoms (cartesian axes, Ry/au):

     atom    1 type  1   force =     0.00021156   -0.00024922    0.00053019
     atom    2 type  2   force =     0.00095946    0.00036569   -0.00080885
     atom    3 type  1   force =     0.00021244   -0.00025046    0.00053000
     atom    4 type  2   force =     0.00095945    0.00036565   -0.00080882
     atom    5 type  1   force =     0.00042103   -0.00001023    0.00006350
     atom    6 type  2   force =    -0.00159257   -0.00010600    0.00021503
     atom    7 type  1   force =     0.00042121   -0.00000940    0.00006385
     atom    8 type  2   force =    -0.00159259   -0.00010603    0.00021510

     Total force =     0.003122     Total SCF correction =     0.000013


     Computing stress (Cartesian axis) and pressure

          total   stress  (Ry/bohr**3)                   (kbar)     P=        1.58
   0.00001101  -0.00000003   0.00000006            1.62       -0.00        0.01
  -0.00000003   0.00001037   0.00000795           -0.00        1.52        1.17
   0.00000006   0.00000795   0.00001086            0.01        1.17        1.60


     BFGS Geometry Optimization
     Energy error            =      0.0E+00
     Gradient error          =      1.6E-03

     number of scf cycles    =   1
     number of bfgs steps    =   0

     energy   new            =   -2217.3097528808 Ry

     new trust radius        =       0.0016105445 bohr
     new conv_thr            =       0.0000000100 Ry


ATOMIC_POSITIONS (angstrom)
Ni            0.0048813874        2.3136187562        0.0043666757
Mn            2.3231771589        0.0076336517        2.3215580847
Ni            0.0048818536        0.0073076025        2.3222665705
Mn            2.3231771528        2.3139441344        0.0036580998
Ni            2.3109220176        0.0013431652       -0.0073610658
Mn            0.0039266823        2.3252840433        2.3220998958
Ni            2.3109221150        2.3308331062        2.3105391198
Mn            0.0039266711       -0.0042054697        0.0041999366



     Writing output data file ./pwscf.save/
     NEW-OLD atomic charge density approx. for the potential

     Check: negative core charge=   -0.000015
     Generating pointlists ...

     total cpu time spent up to now is     2998.3 secs

     Self-consistent Calculation

     iteration #  1     ecut=    90.00 Ry     beta= 0.20
     Davidson diagonalization with overlap
     ethr =  1.00E-06,  avg # of iterations =  3.1

     Threshold (ethr) on eigenvalues was too large:
     Diagonalizing with lowered threshold

     Davidson diagonalization with overlap
     ethr =  8.18E-09,  avg # of iterations =  3.0

     total cpu time spent up to now is     3084.9 secs

     total energy              =   -2217.30975984 Ry
     estimated scf accuracy    <       0.00001095 Ry

     total magnetization       =    -0.00 Bohr mag/cell
     absolute magnetization    =     0.00 Bohr mag/cell

     iteration #  2     ecut=    90.00 Ry     beta= 0.20
     Davidson diagonalization with overlap
     ethr =  8.29E-09,  avg # of iterations =  2.5

     total cpu time spent up to now is     3121.2 secs

     total energy              =   -2217.30974353 Ry
     estimated scf accuracy    <       0.00148302 Ry

     total magnetization       =    -0.00 Bohr mag/cell
     absolute magnetization    =     0.00 Bohr mag/cell

     iteration #  3     ecut=    90.00 Ry     beta= 0.20
     Davidson diagonalization with overlap
     ethr =  8.29E-09,  avg # of iterations =  2.3

     total cpu time spent up to now is     3155.2 secs

     total energy              =   -2217.30976214 Ry
     estimated scf accuracy    <       0.00000486 Ry

     total magnetization       =    -0.00 Bohr mag/cell
     absolute magnetization    =     0.00 Bohr mag/cell

     iteration #  4     ecut=    90.00 Ry     beta= 0.20
     Davidson diagonalization with overlap
     ethr =  3.68E-09,  avg # of iterations =  1.2

     total cpu time spent up to now is     3185.6 secs

     total energy              =   -2217.30976236 Ry
     estimated scf accuracy    <       0.00000425 Ry

     total magnetization       =    -0.00 Bohr mag/cell
     absolute magnetization    =     0.00 Bohr mag/cell

     iteration #  5     ecut=    90.00 Ry     beta= 0.20
     Davidson diagonalization with overlap
     ethr =  3.22E-09,  avg # of iterations =  1.0

     total cpu time spent up to now is     3215.3 secs

     total energy              =   -2217.30976255 Ry
     estimated scf accuracy    <       0.00000091 Ry

     total magnetization       =    -0.00 Bohr mag/cell
     absolute magnetization    =     0.00 Bohr mag/cell

     iteration #  6     ecut=    90.00 Ry     beta= 0.20
     Davidson diagonalization with overlap
     ethr =  6.91E-10,  avg # of iterations =  1.0

     total cpu time spent up to now is     3245.0 secs

     total energy              =   -2217.30976258 Ry
     estimated scf accuracy    <       0.00000037 Ry

     total magnetization       =    -0.00 Bohr mag/cell
     absolute magnetization    =     0.00 Bohr mag/cell

     iteration #  7     ecut=    90.00 Ry     beta= 0.20
     Davidson diagonalization with overlap
     ethr =  2.77E-10,  avg # of iterations =  1.0

     total cpu time spent up to now is     3274.7 secs

     total energy              =   -2217.30976260 Ry
     estimated scf accuracy    <       0.00000016 Ry

     total magnetization       =    -0.00 Bohr mag/cell
     absolute magnetization    =     0.01 Bohr mag/cell

     iteration #  8     ecut=    90.00 Ry     beta= 0.20
     Davidson diagonalization with overlap
     ethr =  1.24E-10,  avg # of iterations =  1.0

     total cpu time spent up to now is     3304.3 secs

     total energy              =   -2217.30976261 Ry
     estimated scf accuracy    <       0.00000018 Ry

     total magnetization       =    -0.00 Bohr mag/cell
     absolute magnetization    =     0.01 Bohr mag/cell

     iteration #  9     ecut=    90.00 Ry     beta= 0.20
     Davidson diagonalization with overlap
     ethr =  1.24E-10,  avg # of iterations =  1.0

     total cpu time spent up to now is     3334.0 secs

     total energy              =   -2217.30976261 Ry
     estimated scf accuracy    <       0.00000011 Ry

     total magnetization       =    -0.00 Bohr mag/cell
     absolute magnetization    =     0.01 Bohr mag/cell

     iteration # 10     ecut=    90.00 Ry     beta= 0.20
     Davidson diagonalization with overlap
     ethr =  8.39E-11,  avg # of iterations =  1.0

     total cpu time spent up to now is     3363.7 secs

     total energy              =   -2217.30976255 Ry
     estimated scf accuracy    <       0.00000012 Ry

     total magnetization       =    -0.00 Bohr mag/cell
     absolute magnetization    =     0.01 Bohr mag/cell

     iteration # 11     ecut=    90.00 Ry     beta= 0.20
     Davidson diagonalization with overlap
     ethr =  8.39E-11,  avg # of iterations =  1.0

     total cpu time spent up to now is     3393.3 secs

     total energy              =   -2217.30976259 Ry
     estimated scf accuracy    <       0.00000001 Ry

     total magnetization       =    -0.00 Bohr mag/cell
     absolute magnetization    =     0.00 Bohr mag/cell

     iteration # 12     ecut=    90.00 Ry     beta= 0.20
     Davidson diagonalization with overlap
     ethr =  8.43E-12,  avg # of iterations =  1.7

     Magnetic moment per site:
     atom:    1    charge:   16.3656    magn:   -0.0001    constr:    0.0000
     atom:    2    charge:   12.9013    magn:   -0.0001    constr:    0.0000
     atom:    3    charge:   16.3657    magn:   -0.0000    constr:    0.0000
     atom:    4    charge:   12.9013    magn:    0.0001    constr:    0.0000
     atom:    5    charge:   16.3658    magn:    0.0000    constr:    0.0000
     atom:    6    charge:   12.9013    magn:   -0.0000    constr:    0.0000
     atom:    7    charge:   16.3657    magn:    0.0002    constr:    0.0000
     atom:    8    charge:   12.9013    magn:    0.0001    constr:    0.0000

     total cpu time spent up to now is     3425.2 secs

     End of self-consistent calculation

     Number of k-points >= 100: set verbosity='high' to print the bands.

     the Fermi energy is    16.2423 ev

!    total energy              =   -2217.30976259 Ry
     estimated scf accuracy    <          7.8E-09 Ry
     smearing contrib. (-TS)   =      -0.01992333 Ry
     internal energy E=F+TS    =   -2217.28983926 Ry

     The total energy is F=E-TS. E is the sum of the following terms:
     one-electron contribution =   -1244.27714376 Ry
     hartree contribution      =     692.88350090 Ry
     xc contribution           =    -247.92185734 Ry
     ewald contribution        =   -1417.97433906 Ry

     total magnetization       =     0.00 Bohr mag/cell
     absolute magnetization    =     0.00 Bohr mag/cell

     convergence has been achieved in  12 iterations

     Forces acting on atoms (cartesian axes, Ry/au):

     atom    1 type  1   force =     0.00034505   -0.00024088    0.00050851
     atom    2 type  2   force =     0.00095598    0.00037124   -0.00081923
     atom    3 type  1   force =     0.00032250   -0.00023893    0.00050492
     atom    4 type  2   force =     0.00095595    0.00037110   -0.00081921
     atom    5 type  1   force =     0.00029144   -0.00001878    0.00008747
     atom    6 type  2   force =    -0.00158031   -0.00011256    0.00022870
     atom    7 type  1   force =     0.00029163   -0.00001867    0.00007953
     atom    8 type  2   force =    -0.00158224   -0.00011252    0.00022933

     Total force =     0.003100     Total SCF correction =     0.000402
     SCF correction compared to forces is large: reduce conv_thr to get better values


     Computing stress (Cartesian axis) and pressure

          total   stress  (Ry/bohr**3)                   (kbar)     P=        1.60
   0.00001108  -0.00000004   0.00000008            1.63       -0.01        0.01
  -0.00000004   0.00001053   0.00000792           -0.01        1.55        1.16
   0.00000008   0.00000792   0.00001097            0.01        1.16        1.61

     Energy error            =      9.7E-06
     Gradient error          =      1.6E-03

     number of scf cycles    =   3
     number of bfgs steps    =   1

     energy   old            =   -2217.3097528808 Ry
     energy   new            =   -2217.3097625911 Ry

     CASE: energy  _new < energy  _old


     WARNING: bfgs curvature condition failed, Theta= 0.808
     new trust radius        =       0.0017715989 bohr
     new conv_thr            =            1.0E-10 Ry


ATOMIC_POSITIONS (angstrom)
Ni            0.0050173863        2.3134743659        0.0046734757
Mn            2.3237357735        0.0078472176        2.3210858876
Ni            0.0050161278        0.0071627967        2.3225729307
Mn            2.3237357594        2.3141576715        0.0031859185
Ni            2.3111549141        0.0013363885       -0.0073217843
Mn            0.0030000818        2.3252216626        2.3222264684
Ni            2.3111551201        2.3308267453        2.3105778140
Mn            0.0029998758       -0.0042678584        0.0043266065



     Writing output data file ./pwscf.save/
     NEW-OLD atomic charge density approx. for the potential

     Check: negative core charge=   -0.000015
     Generating pointlists ...

     total cpu time spent up to now is     3464.6 secs

     Self-consistent Calculation

     iteration #  1     ecut=    90.00 Ry     beta= 0.20
     Davidson diagonalization with overlap
     ethr =  1.00E-06,  avg # of iterations =  3.1

     Threshold (ethr) on eigenvalues was too large:
     Diagonalizing with lowered threshold

     Davidson diagonalization with overlap
     ethr =  3.31E-09,  avg # of iterations =  3.8

     total cpu time spent up to now is     3557.6 secs

     total energy              =   -2217.30977277 Ry
     estimated scf accuracy    <       0.00000450 Ry

     total magnetization       =     0.00 Bohr mag/cell
     absolute magnetization    =     0.00 Bohr mag/cell

     iteration #  2     ecut=    90.00 Ry     beta= 0.20
     Davidson diagonalization with overlap
     ethr =  3.41E-09,  avg # of iterations =  2.0

     total cpu time spent up to now is     3591.9 secs

     total energy              =   -2217.30977166 Ry
     estimated scf accuracy    <       0.00005818 Ry

     total magnetization       =     0.00 Bohr mag/cell
     absolute magnetization    =     0.00 Bohr mag/cell

     iteration #  3     ecut=    90.00 Ry     beta= 0.20
     Davidson diagonalization with overlap
     ethr =  3.41E-09,  avg # of iterations =  1.0

     total cpu time spent up to now is     3621.7 secs

     total energy              =   -2217.30977248 Ry
     estimated scf accuracy    <       0.00002937 Ry

     total magnetization       =     0.00 Bohr mag/cell
     absolute magnetization    =     0.00 Bohr mag/cell

     iteration #  4     ecut=    90.00 Ry     beta= 0.20
     Davidson diagonalization with overlap
     ethr =  3.41E-09,  avg # of iterations =  1.0

     total cpu time spent up to now is     3651.5 secs

     total energy              =   -2217.30977287 Ry
     estimated scf accuracy    <       0.00000692 Ry

     total magnetization       =     0.00 Bohr mag/cell
     absolute magnetization    =     0.01 Bohr mag/cell

     iteration #  5     ecut=    90.00 Ry     beta= 0.20
     Davidson diagonalization with overlap
     ethr =  3.41E-09,  avg # of iterations =  1.0

     total cpu time spent up to now is     3681.1 secs

     total energy              =   -2217.30977317 Ry
     estimated scf accuracy    <       0.00000012 Ry

     total magnetization       =     0.00 Bohr mag/cell
     absolute magnetization    =     0.01 Bohr mag/cell

     iteration #  6     ecut=    90.00 Ry     beta= 0.20
     Davidson diagonalization with overlap
     ethr =  9.35E-11,  avg # of iterations =  2.1

     total cpu time spent up to now is     3718.1 secs

     total energy              =   -2217.30977316 Ry
     estimated scf accuracy    <       0.00000253 Ry

     total magnetization       =     0.00 Bohr mag/cell
     absolute magnetization    =     0.01 Bohr mag/cell

     iteration #  7     ecut=    90.00 Ry     beta= 0.20
     Davidson diagonalization with overlap
     ethr =  9.35E-11,  avg # of iterations =  1.0

     total cpu time spent up to now is     3747.8 secs

     total energy              =   -2217.30977321 Ry
     estimated scf accuracy    <       0.00000019 Ry

     total magnetization       =     0.00 Bohr mag/cell
     absolute magnetization    =     0.01 Bohr mag/cell

     iteration #  8     ecut=    90.00 Ry     beta= 0.20
     Davidson diagonalization with overlap
     ethr =  9.35E-11,  avg # of iterations =  1.0

     total cpu time spent up to now is     3777.5 secs

     total energy              =   -2217.30977321 Ry
     estimated scf accuracy    <       0.00000007 Ry

     total magnetization       =     0.00 Bohr mag/cell
     absolute magnetization    =     0.01 Bohr mag/cell

     iteration #  9     ecut=    90.00 Ry     beta= 0.20
     Davidson diagonalization with overlap
     ethr =  5.58E-11,  avg # of iterations =  1.0

     total cpu time spent up to now is     3807.1 secs

     total energy              =   -2217.30977316 Ry
     estimated scf accuracy    <       0.00000007 Ry

     total magnetization       =     0.00 Bohr mag/cell
     absolute magnetization    =     0.01 Bohr mag/cell

     iteration # 10     ecut=    90.00 Ry     beta= 0.20
     Davidson diagonalization with overlap
     ethr =  5.58E-11,  avg # of iterations =  1.0

     total cpu time spent up to now is     3836.9 secs

     total energy              =   -2217.30977319 Ry
     estimated scf accuracy    <       0.00000004 Ry

     total magnetization       =     0.00 Bohr mag/cell
     absolute magnetization    =     0.01 Bohr mag/cell

     iteration # 11     ecut=    90.00 Ry     beta= 0.20
     Davidson diagonalization with overlap
     ethr =  3.19E-11,  avg # of iterations =  1.1

     total cpu time spent up to now is     3866.7 secs

     total energy              =   -2217.30977319 Ry
     estimated scf accuracy    <       0.00000026 Ry

     total magnetization       =     0.00 Bohr mag/cell
     absolute magnetization    =     0.01 Bohr mag/cell

     iteration # 12     ecut=    90.00 Ry     beta= 0.20
     Davidson diagonalization with overlap
     ethr =  3.19E-11,  avg # of iterations =  1.0

     total cpu time spent up to now is     3896.4 secs

     total energy              =   -2217.30977319 Ry
     estimated scf accuracy    <       0.00000004 Ry

     total magnetization       =    -0.00 Bohr mag/cell
     absolute magnetization    =     0.01 Bohr mag/cell

     iteration # 13     ecut=    90.00 Ry     beta= 0.20
     Davidson diagonalization with overlap
     ethr =  3.19E-11,  avg # of iterations =  1.0

     total cpu time spent up to now is     3926.1 secs

     total energy              =   -2217.30977319 Ry
     estimated scf accuracy    <       0.00000003 Ry

     total magnetization       =    -0.00 Bohr mag/cell
     absolute magnetization    =     0.01 Bohr mag/cell

     iteration # 14     ecut=    90.00 Ry     beta= 0.20
     Davidson diagonalization with overlap
     ethr =  1.98E-11,  avg # of iterations =  1.0

     total cpu time spent up to now is     3955.8 secs

     total energy              =   -2217.30977320 Ry
     estimated scf accuracy    <       0.00000006 Ry

     total magnetization       =    -0.00 Bohr mag/cell
     absolute magnetization    =     0.01 Bohr mag/cell

     iteration # 15     ecut=    90.00 Ry     beta= 0.20
     Davidson diagonalization with overlap
     ethr =  1.98E-11,  avg # of iterations =  1.0

     total cpu time spent up to now is     3985.4 secs

     total energy              =   -2217.30977320 Ry
     estimated scf accuracy    <       0.00000001 Ry

     total magnetization       =    -0.00 Bohr mag/cell
     absolute magnetization    =     0.01 Bohr mag/cell

     iteration # 16     ecut=    90.00 Ry     beta= 0.20
     Davidson diagonalization with overlap
     ethr =  9.54E-12,  avg # of iterations =  1.0

     total cpu time spent up to now is     4015.0 secs

     total energy              =   -2217.30977320 Ry
     estimated scf accuracy    <       0.00000002 Ry

     total magnetization       =    -0.00 Bohr mag/cell
     absolute magnetization    =     0.01 Bohr mag/cell

     iteration # 17     ecut=    90.00 Ry     beta= 0.20
     Davidson diagonalization with overlap
     ethr =  9.54E-12,  avg # of iterations =  1.0

     total cpu time spent up to now is     4044.7 secs

     total energy              =   -2217.30977321 Ry
     estimated scf accuracy    <       0.00000002 Ry

     total magnetization       =    -0.00 Bohr mag/cell
     absolute magnetization    =     0.01 Bohr mag/cell

     iteration # 18     ecut=    90.00 Ry     beta= 0.20
     Davidson diagonalization with overlap
     ethr =  9.54E-12,  avg # of iterations =  1.0

     total cpu time spent up to now is     4074.3 secs

     total energy              =   -2217.30977320 Ry
     estimated scf accuracy    <       0.00000002 Ry

     total magnetization       =    -0.00 Bohr mag/cell
     absolute magnetization    =     0.01 Bohr mag/cell

     iteration # 19     ecut=    90.00 Ry     beta= 0.20
     Davidson diagonalization with overlap
     ethr =  9.54E-12,  avg # of iterations =  1.0

     total cpu time spent up to now is     4103.9 secs

     total energy              =   -2217.30977320 Ry
     estimated scf accuracy    <       0.00000002 Ry

     total magnetization       =    -0.00 Bohr mag/cell
     absolute magnetization    =     0.01 Bohr mag/cell

     iteration # 20     ecut=    90.00 Ry     beta= 0.20
     Davidson diagonalization with overlap
     ethr =  9.54E-12,  avg # of iterations =  1.0

     total cpu time spent up to now is     4133.6 secs

     total energy              =   -2217.30977321 Ry
     estimated scf accuracy    <       0.00000002 Ry

     total magnetization       =    -0.00 Bohr mag/cell
     absolute magnetization    =     0.01 Bohr mag/cell

     iteration # 21     ecut=    90.00 Ry     beta= 0.20
     Davidson diagonalization with overlap
     ethr =  9.54E-12,  avg # of iterations =  1.0

     total cpu time spent up to now is     4163.2 secs

     total energy              =   -2217.30977321 Ry
     estimated scf accuracy    <       0.00000002 Ry

     total magnetization       =    -0.00 Bohr mag/cell
     absolute magnetization    =     0.01 Bohr mag/cell

     iteration # 22     ecut=    90.00 Ry     beta= 0.20
     Davidson diagonalization with overlap
     ethr =  9.54E-12,  avg # of iterations =  1.0

     total cpu time spent up to now is     4192.9 secs

     total energy              =   -2217.30977321 Ry
     estimated scf accuracy    <       0.00000004 Ry

     total magnetization       =    -0.00 Bohr mag/cell
     absolute magnetization    =     0.01 Bohr mag/cell

     iteration # 23     ecut=    90.00 Ry     beta= 0.20
     Davidson diagonalization with overlap
     ethr =  9.54E-12,  avg # of iterations =  1.0

     total cpu time spent up to now is     4223.7 secs

     total energy              =   -2217.30977321 Ry
     estimated scf accuracy    <       0.00000003 Ry

     total magnetization       =    -0.00 Bohr mag/cell
     absolute magnetization    =     0.01 Bohr mag/cell

     iteration # 24     ecut=    90.00 Ry     beta= 0.20
     Davidson diagonalization with overlap
     ethr =  9.54E-12,  avg # of iterations =  1.0

     total cpu time spent up to now is     4253.4 secs

     total energy              =   -2217.30977320 Ry
     estimated scf accuracy    <       0.00000003 Ry

     total magnetization       =    -0.00 Bohr mag/cell
     absolute magnetization    =     0.01 Bohr mag/cell

     iteration # 25     ecut=    90.00 Ry     beta= 0.20
     Davidson diagonalization with overlap
     ethr =  9.54E-12,  avg # of iterations =  1.0

     total cpu time spent up to now is     4283.2 secs

     total energy              =   -2217.30977320 Ry
     estimated scf accuracy    <       0.00000001 Ry

     total magnetization       =    -0.00 Bohr mag/cell
     absolute magnetization    =     0.01 Bohr mag/cell

     iteration # 26     ecut=    90.00 Ry     beta= 0.20
     Davidson diagonalization with overlap
     ethr =  9.54E-12,  avg # of iterations =  1.0

     total cpu time spent up to now is     4312.9 secs

     total energy              =   -2217.30977320 Ry
     estimated scf accuracy    <       0.00000001 Ry

     total magnetization       =    -0.00 Bohr mag/cell
     absolute magnetization    =     0.01 Bohr mag/cell

     iteration # 27     ecut=    90.00 Ry     beta= 0.20
     Davidson diagonalization with overlap
     ethr =  9.54E-12,  avg # of iterations =  1.0

     total cpu time spent up to now is     4342.6 secs

     total energy              =   -2217.30977320 Ry
     estimated scf accuracy    <       0.00000001 Ry

     total magnetization       =     0.00 Bohr mag/cell
     absolute magnetization    =     0.01 Bohr mag/cell

     iteration # 28     ecut=    90.00 Ry     beta= 0.20
     Davidson diagonalization with overlap
     ethr =  9.54E-12,  avg # of iterations =  1.0

     total cpu time spent up to now is     4372.3 secs

     total energy              =   -2217.30977319 Ry
     estimated scf accuracy    <       0.00000001 Ry

     total magnetization       =     0.00 Bohr mag/cell
     absolute magnetization    =     0.01 Bohr mag/cell

     iteration # 29     ecut=    90.00 Ry     beta= 0.20
     Davidson diagonalization with overlap
     ethr =  9.54E-12,  avg # of iterations =  1.0

     total cpu time spent up to now is     4402.0 secs

     total energy              =   -2217.30977318 Ry
     estimated scf accuracy    <       0.00000002 Ry

     total magnetization       =    -0.00 Bohr mag/cell
     absolute magnetization    =     0.01 Bohr mag/cell

     iteration # 30     ecut=    90.00 Ry     beta= 0.20
     Davidson diagonalization with overlap
     ethr =  9.54E-12,  avg # of iterations =  1.4

     total cpu time spent up to now is     4433.1 secs

     total energy              =   -2217.30977318 Ry
     estimated scf accuracy    <       0.00000002 Ry

     total magnetization       =    -0.00 Bohr mag/cell
     absolute magnetization    =     0.01 Bohr mag/cell

     iteration # 31     ecut=    90.00 Ry     beta= 0.20
     Davidson diagonalization with overlap
     ethr =  9.54E-12,  avg # of iterations =  1.0

     total cpu time spent up to now is     4462.8 secs

     total energy              =   -2217.30977318 Ry
     estimated scf accuracy    <       0.00000001 Ry

     total magnetization       =    -0.00 Bohr mag/cell
     absolute magnetization    =     0.01 Bohr mag/cell

     iteration # 32     ecut=    90.00 Ry     beta= 0.20
     Davidson diagonalization with overlap
     ethr =  9.54E-12,  avg # of iterations =  1.0

     total cpu time spent up to now is     4492.5 secs

     total energy              =   -2217.30977318 Ry
     estimated scf accuracy    <       0.00000003 Ry

     total magnetization       =    -0.00 Bohr mag/cell
     absolute magnetization    =     0.01 Bohr mag/cell

     iteration # 33     ecut=    90.00 Ry     beta= 0.20
     Davidson diagonalization with overlap
     ethr =  9.54E-12,  avg # of iterations =  1.0

     total cpu time spent up to now is     4522.2 secs

     total energy              =   -2217.30977318 Ry
     estimated scf accuracy    <       0.00000002 Ry

     total magnetization       =    -0.00 Bohr mag/cell
     absolute magnetization    =     0.01 Bohr mag/cell

     iteration # 34     ecut=    90.00 Ry     beta= 0.20
     Davidson diagonalization with overlap
     ethr =  9.54E-12,  avg # of iterations =  1.0

     total cpu time spent up to now is     4551.9 secs

     total energy              =   -2217.30977318 Ry
     estimated scf accuracy    <       0.00000002 Ry

     total magnetization       =    -0.00 Bohr mag/cell
     absolute magnetization    =     0.01 Bohr mag/cell

     iteration # 35     ecut=    90.00 Ry     beta= 0.20
     Davidson diagonalization with overlap
     ethr =  9.54E-12,  avg # of iterations =  1.0

     total cpu time spent up to now is     4581.6 secs

     total energy              =   -2217.30977317 Ry
     estimated scf accuracy    <       0.00000001 Ry

     total magnetization       =    -0.00 Bohr mag/cell
     absolute magnetization    =     0.01 Bohr mag/cell

     iteration # 36     ecut=    90.00 Ry     beta= 0.20
     Davidson diagonalization with overlap
     ethr =  9.40E-12,  avg # of iterations =  1.0

     total cpu time spent up to now is     4611.3 secs

     total energy              =   -2217.30977317 Ry
     estimated scf accuracy    <       0.00000001 Ry

     total magnetization       =    -0.00 Bohr mag/cell
     absolute magnetization    =     0.01 Bohr mag/cell

     iteration # 37     ecut=    90.00 Ry     beta= 0.20
     Davidson diagonalization with overlap
     ethr =  9.04E-12,  avg # of iterations =  1.1

     total cpu time spent up to now is     4641.1 secs

     total energy              =   -2217.30977317 Ry
     estimated scf accuracy    <       0.00000001 Ry

     total magnetization       =    -0.00 Bohr mag/cell
     absolute magnetization    =     0.00 Bohr mag/cell

     iteration # 38     ecut=    90.00 Ry     beta= 0.20
     Davidson diagonalization with overlap
     ethr =  8.78E-12,  avg # of iterations =  1.0

     total cpu time spent up to now is     4670.9 secs

     total energy              =   -2217.30977316 Ry
     estimated scf accuracy    <       0.00000001 Ry

     total magnetization       =    -0.00 Bohr mag/cell
     absolute magnetization    =     0.00 Bohr mag/cell

     iteration # 39     ecut=    90.00 Ry     beta= 0.20
     Davidson diagonalization with overlap
     ethr =  8.78E-12,  avg # of iterations =  1.2

     total cpu time spent up to now is     4701.2 secs

     total energy              =   -2217.30977316 Ry
     estimated scf accuracy    <       0.00000002 Ry

     total magnetization       =    -0.00 Bohr mag/cell
     absolute magnetization    =     0.00 Bohr mag/cell

     iteration # 40     ecut=    90.00 Ry     beta= 0.20
     Davidson diagonalization with overlap
     ethr =  8.78E-12,  avg # of iterations =  1.0

     total cpu time spent up to now is     4730.9 secs

     total energy              =   -2217.30977316 Ry
     estimated scf accuracy    <       0.00000001 Ry

     total magnetization       =    -0.00 Bohr mag/cell
     absolute magnetization    =     0.00 Bohr mag/cell

     iteration # 41     ecut=    90.00 Ry     beta= 0.20
     Davidson diagonalization with overlap
     ethr =  8.00E-12,  avg # of iterations =  1.0

     total cpu time spent up to now is     4760.5 secs

     total energy              =   -2217.30977316 Ry
     estimated scf accuracy    <       0.00000001 Ry

     total magnetization       =     0.00 Bohr mag/cell
     absolute magnetization    =     0.00 Bohr mag/cell

     iteration # 42     ecut=    90.00 Ry     beta= 0.20
     Davidson diagonalization with overlap
     ethr =  8.00E-12,  avg # of iterations =  1.0

     total cpu time spent up to now is     4790.2 secs

     total energy              =   -2217.30977317 Ry
     estimated scf accuracy    <       0.00000001 Ry

     total magnetization       =     0.00 Bohr mag/cell
     absolute magnetization    =     0.00 Bohr mag/cell

     iteration # 43     ecut=    90.00 Ry     beta= 0.20
     Davidson diagonalization with overlap
     ethr =  8.00E-12,  avg # of iterations =  1.0

     total cpu time spent up to now is     4819.9 secs

     total energy              =   -2217.30977317 Ry
     estimated scf accuracy    <       0.00000001 Ry

     total magnetization       =    -0.00 Bohr mag/cell
     absolute magnetization    =     0.00 Bohr mag/cell

     iteration # 44     ecut=    90.00 Ry     beta= 0.20
     Davidson diagonalization with overlap
     ethr =  7.96E-12,  avg # of iterations =  1.0

     total cpu time spent up to now is     4849.6 secs

     total energy              =   -2217.30977316 Ry
     estimated scf accuracy    <       0.00000002 Ry

     total magnetization       =    -0.00 Bohr mag/cell
     absolute magnetization    =     0.00 Bohr mag/cell

     iteration # 45     ecut=    90.00 Ry     beta= 0.20
     Davidson diagonalization with overlap
     ethr =  7.96E-12,  avg # of iterations =  1.0

     total cpu time spent up to now is     4879.2 secs

     total energy              =   -2217.30977316 Ry
     estimated scf accuracy    <       0.00000001 Ry

     total magnetization       =     0.00 Bohr mag/cell
     absolute magnetization    =     0.00 Bohr mag/cell

     iteration # 46     ecut=    90.00 Ry     beta= 0.20
     Davidson diagonalization with overlap
     ethr =  7.96E-12,  avg # of iterations =  1.0

     total cpu time spent up to now is     4908.9 secs

     total energy              =   -2217.30977316 Ry
     estimated scf accuracy    <          7.7E-09 Ry

     total magnetization       =     0.00 Bohr mag/cell
     absolute magnetization    =     0.00 Bohr mag/cell

     iteration # 47     ecut=    90.00 Ry     beta= 0.20
     Davidson diagonalization with overlap
     ethr =  5.84E-12,  avg # of iterations =  1.0
[...]
     Davidson diagonalization with overlap
     ethr =  1.84E-13,  avg # of iterations =  1.0

     total cpu time spent up to now is    11630.7 secs

     total energy              =   -2217.30977384 Ry
     estimated scf accuracy    <          4.5E-10 Ry

     total magnetization       =    -0.00 Bohr mag/cell
     absolute magnetization    =     0.00 Bohr mag/cell

     iteration # 62     ecut=    90.00 Ry     beta= 0.20
     Davidson diagonalization with overlap
     ethr =  1.84E-13,  avg # of iterations =  1.0

     total cpu time spent up to now is    11660.3 secs

     total energy              =   -2217.30977383 Ry
     estimated scf accuracy    <          2.4E-10 Ry

     total magnetization       =     0.00 Bohr mag/cell
     absolute magnetization    =     0.00 Bohr mag/cell

     iteration # 63     ecut=    90.00 Ry     beta= 0.20
     Davidson diagonalization with overlap
     ethr =  1.84E-13,  avg # of iterations =  2.2

     total cpu time spent up to now is    11697.2 secs

     total energy              =   -2217.30977383 Ry
     estimated scf accuracy    <          3.3E-10 Ry

     total magnetization       =    -0.00 Bohr mag/cell
     absolute magnetization    =     0.00 Bohr mag/cell

     iteration # 64     ecut=    90.00 Ry     beta= 0.20
     Davidson diagonalization with overlap
     ethr =  1.84E-13,  avg # of iterations =  1.0

     total cpu time spent up to now is    11726.8 secs

     total energy              =   -2217.30977383 Ry
     estimated scf accuracy    <          5.8E-10 Ry

     total magnetization       =    -0.00 Bohr mag/cell
     absolute magnetization    =     0.00 Bohr mag/cell

     iteration # 65     ecut=    90.00 Ry     beta= 0.20
     Davidson diagonalization with overlap
     ethr =  1.84E-13,  avg # of iterations =  1.0

     total cpu time spent up to now is    11756.4 secs

     total energy              =   -2217.30977383 Ry
     estimated scf accuracy    <          2.8E-10 Ry

     total magnetization       =    -0.00 Bohr mag/cell
     absolute magnetization    =     0.00 Bohr mag/cell

     iteration # 66     ecut=    90.00 Ry     beta= 0.20
     Davidson diagonalization with overlap
     ethr =  1.84E-13,  avg # of iterations =  1.0

     total cpu time spent up to now is    11786.0 secs

     total energy              =   -2217.30977383 Ry
     estimated scf accuracy    <          2.9E-10 Ry

     total magnetization       =    -0.00 Bohr mag/cell
     absolute magnetization    =     0.00 Bohr mag/cell

     iteration # 67     ecut=    90.00 Ry     beta= 0.20
     Davidson diagonalization with overlap
     ethr =  1.84E-13,  avg # of iterations =  1.0

     total cpu time spent up to now is    11815.6 secs

     total energy              =   -2217.30977383 Ry
     estimated scf accuracy    <          2.9E-10 Ry

     total magnetization       =    -0.00 Bohr mag/cell
     absolute magnetization    =     0.00 Bohr mag/cell

     iteration # 68     ecut=    90.00 Ry     beta= 0.20
     Davidson diagonalization with overlap
     ethr =  1.84E-13,  avg # of iterations =  1.0

     total cpu time spent up to now is    11845.3 secs

     total energy              =   -2217.30977383 Ry
     estimated scf accuracy    <          5.7E-10 Ry

     total magnetization       =    -0.00 Bohr mag/cell
     absolute magnetization    =     0.00 Bohr mag/cell

     iteration # 69     ecut=    90.00 Ry     beta= 0.20
     Davidson diagonalization with overlap
     ethr =  1.84E-13,  avg # of iterations =  1.0

     total cpu time spent up to now is    11874.9 secs

     total energy              =   -2217.30977383 Ry
     estimated scf accuracy    <          3.0E-10 Ry

     total magnetization       =    -0.00 Bohr mag/cell
     absolute magnetization    =     0.00 Bohr mag/cell

     iteration # 70     ecut=    90.00 Ry     beta= 0.20
     Davidson diagonalization with overlap
     ethr =  1.84E-13,  avg # of iterations =  1.0

     total cpu time spent up to now is    11904.6 secs

     total energy              =   -2217.30977383 Ry
     estimated scf accuracy    <          2.9E-10 Ry

     total magnetization       =    -0.00 Bohr mag/cell
     absolute magnetization    =     0.00 Bohr mag/cell

     iteration # 71     ecut=    90.00 Ry     beta= 0.20
     Davidson diagonalization with overlap
     ethr =  1.84E-13,  avg # of iterations =  1.0

     total cpu time spent up to now is    11934.2 secs

     total energy              =   -2217.30977383 Ry
     estimated scf accuracy    <          4.1E-10 Ry

     total magnetization       =    -0.00 Bohr mag/cell
     absolute magnetization    =     0.00 Bohr mag/cell

     iteration # 72     ecut=    90.00 Ry     beta= 0.20
     Davidson diagonalization with overlap
     ethr =  1.84E-13,  avg # of iterations =  1.0

     total cpu time spent up to now is    11963.8 secs

     total energy              =   -2217.30977383 Ry
     estimated scf accuracy    <          3.1E-10 Ry

     total magnetization       =    -0.00 Bohr mag/cell
     absolute magnetization    =     0.00 Bohr mag/cell

     iteration # 73     ecut=    90.00 Ry     beta= 0.20
     Davidson diagonalization with overlap
     ethr =  1.84E-13,  avg # of iterations =  1.0

     total cpu time spent up to now is    11993.4 secs

     total energy              =   -2217.30977383 Ry
     estimated scf accuracy    <          3.2E-10 Ry

     total magnetization       =    -0.00 Bohr mag/cell
     absolute magnetization    =     0.00 Bohr mag/cell

     iteration # 74     ecut=    90.00 Ry     beta= 0.20
     Davidson diagonalization with overlap
     ethr =  1.84E-13,  avg # of iterations =  1.0

     total cpu time spent up to now is    12023.1 secs

     total energy              =   -2217.30977383 Ry
     estimated scf accuracy    <          3.1E-10 Ry

     total magnetization       =    -0.00 Bohr mag/cell
     absolute magnetization    =     0.00 Bohr mag/cell

     iteration # 75     ecut=    90.00 Ry     beta= 0.20
     Davidson diagonalization with overlap
     ethr =  1.84E-13,  avg # of iterations =  1.0

     total cpu time spent up to now is    12052.7 secs

     total energy              =   -2217.30977383 Ry
     estimated scf accuracy    <          2.4E-10 Ry

     total magnetization       =     0.00 Bohr mag/cell
     absolute magnetization    =     0.00 Bohr mag/cell

     iteration # 76     ecut=    90.00 Ry     beta= 0.20
     Davidson diagonalization with overlap
     ethr =  1.83E-13,  avg # of iterations =  1.0

     total cpu time spent up to now is    12082.3 secs

     total energy              =   -2217.30977383 Ry
     estimated scf accuracy    <          2.9E-10 Ry

     total magnetization       =     0.00 Bohr mag/cell
     absolute magnetization    =     0.00 Bohr mag/cell

     iteration # 77     ecut=    90.00 Ry     beta= 0.20
     Davidson diagonalization with overlap
     ethr =  1.83E-13,  avg # of iterations =  1.0

     total cpu time spent up to now is    12111.9 secs

     total energy              =   -2217.30977383 Ry
     estimated scf accuracy    <          3.4E-10 Ry

     total magnetization       =     0.00 Bohr mag/cell
     absolute magnetization    =     0.00 Bohr mag/cell

     iteration # 78     ecut=    90.00 Ry     beta= 0.20
     Davidson diagonalization with overlap
     ethr =  1.83E-13,  avg # of iterations =  1.0

     total cpu time spent up to now is    12141.5 secs

     total energy              =   -2217.30977384 Ry
     estimated scf accuracy    <          4.0E-10 Ry

     total magnetization       =     0.00 Bohr mag/cell
     absolute magnetization    =     0.00 Bohr mag/cell

     iteration # 79     ecut=    90.00 Ry     beta= 0.20
     Davidson diagonalization with overlap
     ethr =  1.83E-13,  avg # of iterations =  1.0

     total cpu time spent up to now is    12171.2 secs

     total energy              =   -2217.30977383 Ry
     estimated scf accuracy    <          3.0E-10 Ry

     total magnetization       =     0.00 Bohr mag/cell
     absolute magnetization    =     0.00 Bohr mag/cell

     iteration # 80     ecut=    90.00 Ry     beta= 0.20
     Davidson diagonalization with overlap
     ethr =  1.83E-13,  avg # of iterations =  1.0

     total cpu time spent up to now is    12200.8 secs

     total energy              =   -2217.30977383 Ry
     estimated scf accuracy    <          2.7E-10 Ry

     total magnetization       =     0.00 Bohr mag/cell
     absolute magnetization    =     0.00 Bohr mag/cell

     iteration # 81     ecut=    90.00 Ry     beta= 0.20
     Davidson diagonalization with overlap
     ethr =  1.83E-13,  avg # of iterations =  1.0

     total cpu time spent up to now is    12230.4 secs

     total energy              =   -2217.30977384 Ry
     estimated scf accuracy    <          3.7E-10 Ry

     total magnetization       =     0.00 Bohr mag/cell
     absolute magnetization    =     0.00 Bohr mag/cell

     iteration # 82     ecut=    90.00 Ry     beta= 0.20
     Davidson diagonalization with overlap
     ethr =  1.83E-13,  avg # of iterations =  1.0

     total cpu time spent up to now is    12260.0 secs

     total energy              =   -2217.30977384 Ry
     estimated scf accuracy    <          2.8E-10 Ry

     total magnetization       =     0.00 Bohr mag/cell
     absolute magnetization    =     0.00 Bohr mag/cell

     iteration # 83     ecut=    90.00 Ry     beta= 0.20
     Davidson diagonalization with overlap
     ethr =  1.83E-13,  avg # of iterations =  1.0

     total cpu time spent up to now is    12289.6 secs

     total energy              =   -2217.30977384 Ry
     estimated scf accuracy    <          2.6E-10 Ry

     total magnetization       =     0.00 Bohr mag/cell
     absolute magnetization    =     0.00 Bohr mag/cell

     iteration # 84     ecut=    90.00 Ry     beta= 0.20
     Davidson diagonalization with overlap
     ethr =  1.83E-13,  avg # of iterations =  1.0

     total cpu time spent up to now is    12319.2 secs

     total energy              =   -2217.30977383 Ry
     estimated scf accuracy    <          5.9E-10 Ry

     total magnetization       =     0.00 Bohr mag/cell
     absolute magnetization    =     0.00 Bohr mag/cell

     iteration # 85     ecut=    90.00 Ry     beta= 0.20
     Davidson diagonalization with overlap
     ethr =  1.83E-13,  avg # of iterations =  1.5

     total cpu time spent up to now is    12350.5 secs

     total energy              =   -2217.30977383 Ry
     estimated scf accuracy    <          4.5E-10 Ry

     total magnetization       =     0.00 Bohr mag/cell
     absolute magnetization    =     0.00 Bohr mag/cell

     iteration # 86     ecut=    90.00 Ry     beta= 0.20
     Davidson diagonalization with overlap
     ethr =  1.83E-13,  avg # of iterations =  1.0

     total cpu time spent up to now is    12380.1 secs

     total energy              =   -2217.30977383 Ry
     estimated scf accuracy    <          8.4E-10 Ry

     total magnetization       =     0.00 Bohr mag/cell
     absolute magnetization    =     0.00 Bohr mag/cell

     iteration # 87     ecut=    90.00 Ry     beta= 0.20
     Davidson diagonalization with overlap
     ethr =  1.83E-13,  avg # of iterations =  1.1

     total cpu time spent up to now is    12410.0 secs

     total energy              =   -2217.30977383 Ry
     estimated scf accuracy    <          4.4E-10 Ry

     total magnetization       =     0.00 Bohr mag/cell
     absolute magnetization    =     0.00 Bohr mag/cell

     iteration # 88     ecut=    90.00 Ry     beta= 0.20
     Davidson diagonalization with overlap
     ethr =  1.83E-13,  avg # of iterations =  1.0

     total cpu time spent up to now is    12439.8 secs

     total energy              =   -2217.30977383 Ry
     estimated scf accuracy    <          1.7E-09 Ry

     total magnetization       =     0.00 Bohr mag/cell
     absolute magnetization    =     0.00 Bohr mag/cell

     iteration # 89     ecut=    90.00 Ry     beta= 0.20
     Davidson diagonalization with overlap
     ethr =  1.83E-13,  avg # of iterations =  2.2

     total cpu time spent up to now is    12474.1 secs

     total energy              =   -2217.30977383 Ry
     estimated scf accuracy    <          9.4E-10 Ry

     total magnetization       =     0.00 Bohr mag/cell
     absolute magnetization    =     0.00 Bohr mag/cell

     iteration # 90     ecut=    90.00 Ry     beta= 0.20
     Davidson diagonalization with overlap
     ethr =  1.83E-13,  avg # of iterations =  1.3

     total cpu time spent up to now is    12504.9 secs

     total energy              =   -2217.30977383 Ry
     estimated scf accuracy    <          2.3E-10 Ry

     total magnetization       =     0.00 Bohr mag/cell
     absolute magnetization    =     0.00 Bohr mag/cell

     iteration # 91     ecut=    90.00 Ry     beta= 0.20
     Davidson diagonalization with overlap
     ethr =  1.76E-13,  avg # of iterations =  2.2

     total cpu time spent up to now is    12538.9 secs

     total energy              =   -2217.30977383 Ry
     estimated scf accuracy    <          1.1E-10 Ry

     total magnetization       =    -0.00 Bohr mag/cell
     absolute magnetization    =     0.00 Bohr mag/cell

     iteration # 92     ecut=    90.00 Ry     beta= 0.20
     Davidson diagonalization with overlap
     ethr =  1.00E-13,  avg # of iterations =  1.0

     Magnetic moment per site:
     atom:    1    charge:   16.3657    magn:   -0.0000    constr:    0.0000
     atom:    2    charge:   12.9013    magn:    0.0000    constr:    0.0000
     atom:    3    charge:   16.3656    magn:   -0.0000    constr:    0.0000
     atom:    4    charge:   12.9013    magn:   -0.0000    constr:    0.0000
     atom:    5    charge:   16.3657    magn:    0.0000    constr:    0.0000
     atom:    6    charge:   12.9013    magn:   -0.0000    constr:    0.0000
     atom:    7    charge:   16.3657    magn:    0.0000    constr:    0.0000
     atom:    8    charge:   12.9013    magn:   -0.0000    constr:    0.0000

     total cpu time spent up to now is    12568.6 secs

     End of self-consistent calculation

     Number of k-points >= 100: set verbosity='high' to print the bands.

     the Fermi energy is    16.2423 ev

!    total energy              =   -2217.30977383 Ry
     estimated scf accuracy    <          8.1E-11 Ry
     smearing contrib. (-TS)   =      -0.01993085 Ry
     internal energy E=F+TS    =   -2217.28984298 Ry

     The total energy is F=E-TS. E is the sum of the following terms:
     one-electron contribution =   -1244.24604824 Ry
     hartree contribution      =     692.86822398 Ry
     xc contribution           =    -247.92172737 Ry
     ewald contribution        =   -1417.99029135 Ry

     total magnetization       =    -0.00 Bohr mag/cell
     absolute magnetization    =     0.00 Bohr mag/cell

     convergence has been achieved in  92 iterations

     Forces acting on atoms (cartesian axes, Ry/au):

     atom    1 type  1   force =     0.00029195   -0.00026722    0.00050036
     atom    2 type  2   force =     0.00035155    0.00035607   -0.00068535
     atom    3 type  1   force =     0.00029149   -0.00026720    0.00050064
     atom    4 type  2   force =     0.00035262    0.00035638   -0.00068510
     atom    5 type  1   force =    -0.00014656    0.00007013   -0.00011321
     atom    6 type  2   force =    -0.00049819   -0.00015914    0.00029750
     atom    7 type  1   force =    -0.00014751    0.00007004   -0.00011272
     atom    8 type  2   force =    -0.00049535   -0.00015907    0.00029789

     Total force =     0.001748     Total SCF correction =     0.000008


     Computing stress (Cartesian axis) and pressure

          total   stress  (Ry/bohr**3)                   (kbar)     P=        1.47
   0.00000985  -0.00000001   0.00000003            1.45       -0.00        0.00
  -0.00000001   0.00001006   0.00000785           -0.00        1.48        1.15
   0.00000003   0.00000785   0.00001016            0.00        1.15        1.49

     Energy error            =      1.5E-04
     Gradient error          =      6.9E-04

     number of scf cycles    =   2
     number of bfgs steps    =   1

     energy   old            =   -2217.3096190815 Ry
     energy   new            =   -2217.3097738342 Ry

     CASE: energy  _new < energy  _old


     WARNING: bfgs curvature condition failed, Theta= 0.798
     new trust radius        =       0.0320637479 bohr
     new conv_thr            =       0.0000000007 Ry


ATOMIC_POSITIONS (angstrom)
Ni            0.0066328554        2.2961826780        0.0052156126
Mn            2.3258901474       -0.0074210418        2.3177738780
Ni            0.0066073068       -0.0101308646        2.3231217650
Mn            2.3258871596        2.2988877406       -0.0001205966
Ni            2.3081888533        0.0025881599       -0.0099594826
Mn            0.0030042576        2.3083276111        2.3219645058
Ni            2.3081227032        2.3320718918        2.3079404528
Mn            0.0030086863       -0.0211641037        0.0040662913



     Writing output data file ./pwscf.save/
     NEW-OLD atomic charge density approx. for the potential

     Check: negative core charge=   -0.000015
     Generating pointlists ...

     total cpu time spent up to now is    12607.9 secs

     Self-consistent Calculation

     iteration #  1     ecut=    90.00 Ry     beta= 0.20
     Davidson diagonalization with overlap
     ethr =  1.00E-06,  avg # of iterations =  7.3

     total cpu time spent up to now is    12697.8 secs

     total energy              =   -2217.30978525 Ry
     estimated scf accuracy    <       0.00143909 Ry

     total magnetization       =    -0.00 Bohr mag/cell
     absolute magnetization    =     0.00 Bohr mag/cell

     iteration #  2     ecut=    90.00 Ry     beta= 0.20
     Davidson diagonalization with overlap
     ethr =  1.09E-06,  avg # of iterations =  2.0

     total cpu time spent up to now is    12731.3 secs

     total energy              =   -2217.30966548 Ry
     estimated scf accuracy    <       0.00119207 Ry

     total magnetization       =    -0.00 Bohr mag/cell
     absolute magnetization    =     0.00 Bohr mag/cell

     iteration #  3     ecut=    90.00 Ry     beta= 0.20
     Davidson diagonalization with overlap
     ethr =  9.03E-07,  avg # of iterations =  1.9

     total cpu time spent up to now is    12764.0 secs

     total energy              =   -2217.30911754 Ry
     estimated scf accuracy    <       0.05378919 Ry

     total magnetization       =    -0.00 Bohr mag/cell
     absolute magnetization    =     0.00 Bohr mag/cell

     iteration #  4     ecut=    90.00 Ry     beta= 0.20
     Davidson diagonalization with overlap
     ethr =  9.03E-07,  avg # of iterations =  1.5

     total cpu time spent up to now is    12795.2 secs

     total energy              =   -2217.30979217 Ry
     estimated scf accuracy    <       0.00007185 Ry

     total magnetization       =    -0.00 Bohr mag/cell
     absolute magnetization    =     0.00 Bohr mag/cell

     iteration #  5     ecut=    90.00 Ry     beta= 0.20
     Davidson diagonalization with overlap
     ethr =  5.44E-08,  avg # of iterations =  2.4

     total cpu time spent up to now is    12832.8 secs

     total energy              =   -2217.30978869 Ry
     estimated scf accuracy    <       0.00032170 Ry

     total magnetization       =    -0.00 Bohr mag/cell
     absolute magnetization    =     0.00 Bohr mag/cell

     iteration #  6     ecut=    90.00 Ry     beta= 0.20
     Davidson diagonalization with overlap
     ethr =  5.44E-08,  avg # of iterations =  1.2

     total cpu time spent up to now is    12863.1 secs

     total energy              =   -2217.30979798 Ry
     estimated scf accuracy    <       0.00049605 Ry

     total magnetization       =    -0.00 Bohr mag/cell
     absolute magnetization    =     0.00 Bohr mag/cell

     iteration #  7     ecut=    90.00 Ry     beta= 0.20
     Davidson diagonalization with overlap
