
     Program PWSCF v.6.7MaX starts on 22Mar2022 at 10:50: 3 

     This program is part of the open-source Quantum ESPRESSO suite
     for quantum simulation of materials; please cite
         "P. Giannozzi et al., J. Phys.:Condens. Matter 21 395502 (2009);
         "P. Giannozzi et al., J. Phys.:Condens. Matter 29 465901 (2017);
          URL http://www.quantum-espresso.org", 
     in publications or presentations arising from this work. More details at
     http://www.quantum-espresso.org/quote

     Parallel version (MPI), running on    16 processors

     MPI processes distributed on     1 nodes
     R & G space division:  proc/nbgrp/npool/nimage =      16
     Reading input from /home/kevin/QE_CoCrFeMnNi/CoCrFeMnNi/Opt/binary/Opt-B1-MnNi/Mix/elastic/Chg_6-B1-MnNi.in

     Current dimensions of program PWSCF are:
     Max number of different atomic species (ntypx) = 10
     Max number of k-points (npk) =  40000
     Max angular momentum in pseudopotentials (lmaxx) =  3

     Subspace diagonalization in iterative solution of the eigenvalue problem:
     a serial algorithm will be used

     Found symmetry operation: I + (  0.0000  0.5000 -0.5000)
     This is a supercell, fractional translations are disabled

     Parallelization info
     --------------------
     sticks:   dense  smooth     PW     G-vecs:    dense   smooth      PW
     Min         411     137     38                25187     4847     732
     Max         412     138     39                25190     4852     735
     Sum        6589    2205    621               403011    77589   11733



     bravais-lattice index     =            0
     lattice parameter (alat)  =       8.7604  a.u.
     unit-cell volume          =     672.3117 (a.u.)^3
     number of atoms/cell      =            8
     number of atomic types    =            2
     number of electrons       =       132.00
     number of Kohn-Sham states=           79
     kinetic-energy cutoff     =      90.0000  Ry
     charge density cutoff     =    1080.0000  Ry
     scf convergence threshold =      1.0E-08
     mixing beta               =       0.2000
     number of iterations used =            8  plain     mixing
     energy convergence thresh.=      1.0E-05
     force convergence thresh. =      1.0E-04
     Exchange-correlation=  SLA  PW   PBX  PBC
                           (   1   4   3   4   0   0   0)
     nstep                     =          100


     celldm(1)=   8.760392  celldm(2)=   0.000000  celldm(3)=   0.000000
     celldm(4)=   0.000000  celldm(5)=   0.000000  celldm(6)=   0.000000

     crystal axes: (cart. coord. in units of alat)
               a(1) = (   1.000000   0.000000   0.000000 )  
               a(2) = (   0.005000   1.000000   0.000000 )  
               a(3) = (   0.000000   0.000000   1.000000 )  

     reciprocal axes: (cart. coord. in units 2 pi/alat)
               b(1) = (  1.000000 -0.005000  0.000000 )  
               b(2) = (  0.000000  1.000000  0.000000 )  
               b(3) = (  0.000000  0.000000  1.000000 )  


     PseudoPot. # 1 for Ni read from file:
     /opt/QEpot/SSSP_efficiency_pseudos/ni_pbe_v1.4.uspp.F.UPF
     MD5 check sum: 1ee80287db30b12d2bc1f57a5b5d6409
     Pseudo is Ultrasoft + core correction, Zval = 18.0
     Generated by new atomic code, or converted to UPF format
     Using radial grid of  865 points,  6 beta functions with: 
                l(1) =   0
                l(2) =   0
                l(3) =   1
                l(4) =   1
                l(5) =   2
                l(6) =   2
     Q(r) pseudized with 10 coefficients,  rinner =    0.980   0.980   0.980
                                                       0.980   0.980

     PseudoPot. # 2 for Mn read from file:
     /opt/QEpot/SSSP_efficiency_pseudos/mn_pbe_v1.5.uspp.F.UPF
     MD5 check sum: 82ef2b46521d7a7d9e736dc3972e4928
     Pseudo is Ultrasoft + core correction, Zval = 15.0
     Generated by new atomic code, or converted to UPF format
     Using radial grid of  859 points,  6 beta functions with: 
                l(1) =   0
                l(2) =   0
                l(3) =   1
                l(4) =   1
                l(5) =   2
                l(6) =   2
     Q(r) pseudized with  8 coefficients,  rinner =    0.950   0.950   0.950
                                                       0.950   0.950

     atomic species   valence    mass     pseudopotential
        Ni            18.00    58.69300     Ni( 1.00)
        Mn            15.00    54.93800     Mn( 1.00)

     Starting magnetic structure 
     atomic species   magnetization
        Ni           0.000
        Mn           0.000

     No symmetry found



   Cartesian axes

     site n.     atom                  positions (alat units)
         1           Ni  tau(   1) = (   0.0011301   0.4983128   0.0018309  )
         2           Mn  tau(   2) = (   0.4986301  -0.0016872   0.5018309  )
         3           Ni  tau(   3) = (  -0.0013699  -0.0016872   0.5018309  )
         4           Mn  tau(   4) = (   0.5011301   0.4983128   0.0018309  )
         5           Ni  tau(   5) = (   0.4995047  -0.0006049   0.0000880  )
         6           Mn  tau(   6) = (   0.0011301   0.4983128   0.5018309  )
         7           Ni  tau(   7) = (   0.5020047   0.4993951   0.5000880  )
         8           Mn  tau(   8) = (  -0.0013699  -0.0016872   0.0018309  )

     number of k points=   112  Gaussian smearing, width (Ry)=  0.0100

     Number of k-points >= 100: set verbosity='high' to print them.

     Dense  grid:   403011 G-vectors     FFT dimensions: (  96,  96,  96)

     Smooth grid:    77589 G-vectors     FFT dimensions: (  54,  54,  54)

     Estimated max dynamical RAM per process >     273.21 MB

     Estimated total dynamical RAM >       4.27 GB

     Check: negative core charge=   -0.000015
     Generating pointlists ...
     new r_m :   0.2055 (alat units)  1.8005 (a.u.) for type    1
     new r_m :   0.2055 (alat units)  1.8005 (a.u.) for type    2

     Initial potential from superposition of free atoms

     starting charge  121.99966, renormalised to  132.00000
     Starting wfcs are  104 randomized atomic wfcs

     total cpu time spent up to now is       16.5 secs

     Self-consistent Calculation

     iteration #  1     ecut=    90.00 Ry     beta= 0.20
     Davidson diagonalization with overlap
     ethr =  1.00E-02,  avg # of iterations =  3.1

     total cpu time spent up to now is       61.2 secs

     total energy              =   -2191.97201387 Ry
     estimated scf accuracy    <     151.91566984 Ry

     total magnetization       =     0.00 Bohr mag/cell
     absolute magnetization    =     0.01 Bohr mag/cell

     iteration #  2     ecut=    90.00 Ry     beta= 0.20
     Davidson diagonalization with overlap
     ethr =  1.00E-02,  avg # of iterations =  4.4

     total cpu time spent up to now is      108.7 secs

     total energy              =   -2215.79791228 Ry
     estimated scf accuracy    <      63.77321100 Ry

     total magnetization       =     0.00 Bohr mag/cell
     absolute magnetization    =     0.01 Bohr mag/cell

     iteration #  3     ecut=    90.00 Ry     beta= 0.20
     Davidson diagonalization with overlap
     ethr =  1.00E-02,  avg # of iterations =  4.1

     total cpu time spent up to now is      148.2 secs

     total energy              =   -2212.46807441 Ry
     estimated scf accuracy    <      13.39882339 Ry

     total magnetization       =    -0.01 Bohr mag/cell
     absolute magnetization    =     0.02 Bohr mag/cell

     iteration #  4     ecut=    90.00 Ry     beta= 0.20
     Davidson diagonalization with overlap
     ethr =  1.00E-02,  avg # of iterations =  4.1

     total cpu time spent up to now is      190.4 secs

     total energy              =   -2209.34103799 Ry
     estimated scf accuracy    <     120.48237295 Ry

     total magnetization       =    -0.00 Bohr mag/cell
     absolute magnetization    =     0.01 Bohr mag/cell

     iteration #  5     ecut=    90.00 Ry     beta= 0.20
     Davidson diagonalization with overlap
     ethr =  1.00E-02,  avg # of iterations =  3.4

     total cpu time spent up to now is      227.5 secs

     total energy              =   -2217.23701533 Ry
     estimated scf accuracy    <       4.09369477 Ry

     total magnetization       =    -0.00 Bohr mag/cell
     absolute magnetization    =     0.02 Bohr mag/cell

     iteration #  6     ecut=    90.00 Ry     beta= 0.20
     Davidson diagonalization with overlap
     ethr =  3.10E-03,  avg # of iterations =  1.2

     total cpu time spent up to now is      255.3 secs

     total energy              =   -2217.35649071 Ry
     estimated scf accuracy    <       1.01493678 Ry

     total magnetization       =     0.00 Bohr mag/cell
     absolute magnetization    =     0.02 Bohr mag/cell

     iteration #  7     ecut=    90.00 Ry     beta= 0.20
     Davidson diagonalization with overlap
     ethr =  7.69E-04,  avg # of iterations =  1.6

     total cpu time spent up to now is      284.1 secs

     total energy              =   -2217.37454622 Ry
     estimated scf accuracy    <       1.47797826 Ry

     total magnetization       =    -0.00 Bohr mag/cell
     absolute magnetization    =     0.01 Bohr mag/cell

     iteration #  8     ecut=    90.00 Ry     beta= 0.20
     Davidson diagonalization with overlap
     ethr =  7.69E-04,  avg # of iterations =  1.0

     total cpu time spent up to now is      311.9 secs

     total energy              =   -2217.28671422 Ry
     estimated scf accuracy    <       1.32694862 Ry

     total magnetization       =    -0.00 Bohr mag/cell
     absolute magnetization    =     0.02 Bohr mag/cell

     iteration #  9     ecut=    90.00 Ry     beta= 0.20
     Davidson diagonalization with overlap
     ethr =  7.69E-04,  avg # of iterations =  1.0

     total cpu time spent up to now is      340.4 secs

     total energy              =   -2217.30481668 Ry
     estimated scf accuracy    <       0.19060199 Ry

     total magnetization       =    -0.00 Bohr mag/cell
     absolute magnetization    =     0.02 Bohr mag/cell

     iteration # 10     ecut=    90.00 Ry     beta= 0.20
     Davidson diagonalization with overlap
     ethr =  1.44E-04,  avg # of iterations =  1.3

     total cpu time spent up to now is      370.1 secs

     total energy              =   -2217.30039348 Ry
     estimated scf accuracy    <       0.03712276 Ry

     total magnetization       =    -0.00 Bohr mag/cell
     absolute magnetization    =     0.03 Bohr mag/cell

     iteration # 11     ecut=    90.00 Ry     beta= 0.20
     Davidson diagonalization with overlap
     ethr =  2.81E-05,  avg # of iterations =  4.3

     total cpu time spent up to now is      410.9 secs

     total energy              =   -2217.28660485 Ry
     estimated scf accuracy    <       0.76263433 Ry

     total magnetization       =    -0.00 Bohr mag/cell
     absolute magnetization    =     0.04 Bohr mag/cell

     iteration # 12     ecut=    90.00 Ry     beta= 0.20
     Davidson diagonalization with overlap
     ethr =  2.81E-05,  avg # of iterations =  3.0

     total cpu time spent up to now is      445.9 secs

     total energy              =   -2217.31487827 Ry
     estimated scf accuracy    <       0.01418289 Ry

     total magnetization       =     0.00 Bohr mag/cell
     absolute magnetization    =     0.03 Bohr mag/cell

     iteration # 13     ecut=    90.00 Ry     beta= 0.20
     Davidson diagonalization with overlap
     ethr =  1.07E-05,  avg # of iterations =  3.0

     total cpu time spent up to now is      482.2 secs

     total energy              =   -2217.25308001 Ry
     estimated scf accuracy    <       0.43109718 Ry

     total magnetization       =    -0.00 Bohr mag/cell
     absolute magnetization    =     0.03 Bohr mag/cell

     iteration # 14     ecut=    90.00 Ry     beta= 0.20
     Davidson diagonalization with overlap
     ethr =  1.07E-05,  avg # of iterations =  4.3

     total cpu time spent up to now is      530.7 secs

     total energy              =   -2217.32404227 Ry
     estimated scf accuracy    <       0.57251856 Ry

     total magnetization       =    -0.00 Bohr mag/cell
     absolute magnetization    =     0.02 Bohr mag/cell

     iteration # 15     ecut=    90.00 Ry     beta= 0.20
     Davidson diagonalization with overlap
     ethr =  1.07E-05,  avg # of iterations =  1.0

     total cpu time spent up to now is      559.8 secs

     total energy              =   -2217.31176164 Ry
     estimated scf accuracy    <       0.32995205 Ry

     total magnetization       =    -0.01 Bohr mag/cell
     absolute magnetization    =     0.03 Bohr mag/cell

     iteration # 16     ecut=    90.00 Ry     beta= 0.20
     Davidson diagonalization with overlap
     ethr =  1.07E-05,  avg # of iterations =  2.1

     total cpu time spent up to now is      593.3 secs

     total energy              =   -2217.31144904 Ry
     estimated scf accuracy    <       0.11008916 Ry

     total magnetization       =    -0.01 Bohr mag/cell
     absolute magnetization    =     0.04 Bohr mag/cell

     iteration # 17     ecut=    90.00 Ry     beta= 0.20
     Davidson diagonalization with overlap
     ethr =  1.07E-05,  avg # of iterations =  1.0

     total cpu time spent up to now is      623.5 secs

     total energy              =   -2217.31123738 Ry
     estimated scf accuracy    <       0.04887531 Ry

     total magnetization       =    -0.01 Bohr mag/cell
     absolute magnetization    =     0.04 Bohr mag/cell

     iteration # 18     ecut=    90.00 Ry     beta= 0.20
     Davidson diagonalization with overlap
     ethr =  1.07E-05,  avg # of iterations =  1.0

     total cpu time spent up to now is      652.5 secs

     total energy              =   -2217.30992339 Ry
     estimated scf accuracy    <       0.03931708 Ry

     total magnetization       =    -0.02 Bohr mag/cell
     absolute magnetization    =     0.09 Bohr mag/cell

     iteration # 19     ecut=    90.00 Ry     beta= 0.20
     Davidson diagonalization with overlap
     ethr =  1.07E-05,  avg # of iterations =  1.0

     total cpu time spent up to now is      681.5 secs

     total energy              =   -2217.30955868 Ry
     estimated scf accuracy    <       0.01872358 Ry

     total magnetization       =    -0.02 Bohr mag/cell
     absolute magnetization    =     0.11 Bohr mag/cell

     iteration # 20     ecut=    90.00 Ry     beta= 0.20
     Davidson diagonalization with overlap
     ethr =  1.07E-05,  avg # of iterations =  1.0

     total cpu time spent up to now is      710.3 secs

     total energy              =   -2217.30937389 Ry
     estimated scf accuracy    <       0.02124212 Ry

     total magnetization       =    -0.02 Bohr mag/cell
     absolute magnetization    =     0.10 Bohr mag/cell

     iteration # 21     ecut=    90.00 Ry     beta= 0.20
     Davidson diagonalization with overlap
     ethr =  1.07E-05,  avg # of iterations =  1.0

     total cpu time spent up to now is      739.3 secs

     total energy              =   -2217.30969086 Ry
     estimated scf accuracy    <       0.00487996 Ry

     total magnetization       =    -0.03 Bohr mag/cell
     absolute magnetization    =     0.14 Bohr mag/cell

     iteration # 22     ecut=    90.00 Ry     beta= 0.20
     Davidson diagonalization with overlap
     ethr =  3.70E-06,  avg # of iterations =  1.0

     total cpu time spent up to now is      768.3 secs

     total energy              =   -2217.30972324 Ry
     estimated scf accuracy    <       0.00451041 Ry

     total magnetization       =    -0.03 Bohr mag/cell
     absolute magnetization    =     0.17 Bohr mag/cell

     iteration # 23     ecut=    90.00 Ry     beta= 0.20
     Davidson diagonalization with overlap
     ethr =  3.42E-06,  avg # of iterations =  1.0

     total cpu time spent up to now is      797.3 secs

     total energy              =   -2217.30979422 Ry
     estimated scf accuracy    <       0.00024226 Ry

     total magnetization       =    -0.04 Bohr mag/cell
     absolute magnetization    =     0.17 Bohr mag/cell

     iteration # 24     ecut=    90.00 Ry     beta= 0.20
     Davidson diagonalization with overlap
     ethr =  1.84E-07,  avg # of iterations =  1.4

     total cpu time spent up to now is      827.0 secs

     total energy              =   -2217.30980409 Ry
     estimated scf accuracy    <       0.00010327 Ry

     total magnetization       =    -0.04 Bohr mag/cell
     absolute magnetization    =     0.19 Bohr mag/cell

     iteration # 25     ecut=    90.00 Ry     beta= 0.20
     Davidson diagonalization with overlap
     ethr =  7.82E-08,  avg # of iterations =  1.2

     total cpu time spent up to now is      856.2 secs

     total energy              =   -2217.30981980 Ry
     estimated scf accuracy    <       0.00020083 Ry

     total magnetization       =    -0.04 Bohr mag/cell
     absolute magnetization    =     0.20 Bohr mag/cell

     iteration # 26     ecut=    90.00 Ry     beta= 0.20
     Davidson diagonalization with overlap
     ethr =  7.82E-08,  avg # of iterations =  1.0

     total cpu time spent up to now is      885.2 secs

     total energy              =   -2217.30971499 Ry
     estimated scf accuracy    <       0.00016016 Ry

     total magnetization       =    -0.05 Bohr mag/cell
     absolute magnetization    =     0.24 Bohr mag/cell

     iteration # 27     ecut=    90.00 Ry     beta= 0.20
     Davidson diagonalization with overlap
     ethr =  7.82E-08,  avg # of iterations =  1.2

     total cpu time spent up to now is      914.6 secs

     total energy              =   -2217.30975502 Ry
     estimated scf accuracy    <       0.00005614 Ry

     total magnetization       =    -0.01 Bohr mag/cell
     absolute magnetization    =     0.07 Bohr mag/cell

     iteration # 28     ecut=    90.00 Ry     beta= 0.20
     Davidson diagonalization with overlap
     ethr =  4.25E-08,  avg # of iterations =  1.5

     total cpu time spent up to now is      944.8 secs

     total energy              =   -2217.30975751 Ry
     estimated scf accuracy    <       0.00005141 Ry

     total magnetization       =    -0.00 Bohr mag/cell
     absolute magnetization    =     0.02 Bohr mag/cell

     iteration # 29     ecut=    90.00 Ry     beta= 0.20
     Davidson diagonalization with overlap
     ethr =  3.89E-08,  avg # of iterations =  1.0

     total cpu time spent up to now is      973.8 secs

     total energy              =   -2217.30975762 Ry
     estimated scf accuracy    <       0.00014373 Ry

     total magnetization       =    -0.00 Bohr mag/cell
     absolute magnetization    =     0.04 Bohr mag/cell

     iteration # 30     ecut=    90.00 Ry     beta= 0.20
     Davidson diagonalization with overlap
     ethr =  3.89E-08,  avg # of iterations =  1.1

     total cpu time spent up to now is     1003.0 secs

     total energy              =   -2217.30974589 Ry
     estimated scf accuracy    <       0.00096092 Ry

     total magnetization       =    -0.00 Bohr mag/cell
     absolute magnetization    =     0.04 Bohr mag/cell

     iteration # 31     ecut=    90.00 Ry     beta= 0.20
     Davidson diagonalization with overlap
     ethr =  3.89E-08,  avg # of iterations =  1.0

     total cpu time spent up to now is     1032.0 secs

     total energy              =   -2217.30976127 Ry
     estimated scf accuracy    <       0.00002153 Ry

     total magnetization       =     0.01 Bohr mag/cell
     absolute magnetization    =     0.01 Bohr mag/cell

     iteration # 32     ecut=    90.00 Ry     beta= 0.20
     Davidson diagonalization with overlap
     ethr =  1.63E-08,  avg # of iterations =  1.0

     total cpu time spent up to now is     1061.0 secs

     total energy              =   -2217.30976138 Ry
     estimated scf accuracy    <       0.00003195 Ry

     total magnetization       =     0.01 Bohr mag/cell
     absolute magnetization    =     0.01 Bohr mag/cell

     iteration # 33     ecut=    90.00 Ry     beta= 0.20
     Davidson diagonalization with overlap
     ethr =  1.63E-08,  avg # of iterations =  1.0

     total cpu time spent up to now is     1089.9 secs

     total energy              =   -2217.30976142 Ry
     estimated scf accuracy    <       0.00002417 Ry

     total magnetization       =     0.01 Bohr mag/cell
     absolute magnetization    =     0.01 Bohr mag/cell

     iteration # 34     ecut=    90.00 Ry     beta= 0.20
     Davidson diagonalization with overlap
     ethr =  1.63E-08,  avg # of iterations =  1.0

     total cpu time spent up to now is     1118.9 secs

     total energy              =   -2217.30976165 Ry
     estimated scf accuracy    <       0.00001746 Ry

     total magnetization       =     0.01 Bohr mag/cell
     absolute magnetization    =     0.01 Bohr mag/cell

     iteration # 35     ecut=    90.00 Ry     beta= 0.20
     Davidson diagonalization with overlap
     ethr =  1.32E-08,  avg # of iterations =  1.0

     total cpu time spent up to now is     1147.8 secs

     total energy              =   -2217.30976223 Ry
     estimated scf accuracy    <       0.00000117 Ry

     total magnetization       =     0.02 Bohr mag/cell
     absolute magnetization    =     0.02 Bohr mag/cell

     iteration # 36     ecut=    90.00 Ry     beta= 0.20
     Davidson diagonalization with overlap
     ethr =  8.86E-10,  avg # of iterations =  1.0

     total cpu time spent up to now is     1176.7 secs

     total energy              =   -2217.30976223 Ry
     estimated scf accuracy    <       0.00000086 Ry

     total magnetization       =     0.02 Bohr mag/cell
     absolute magnetization    =     0.02 Bohr mag/cell

     iteration # 37     ecut=    90.00 Ry     beta= 0.20
     Davidson diagonalization with overlap
     ethr =  6.53E-10,  avg # of iterations =  1.0

     total cpu time spent up to now is     1205.6 secs

     total energy              =   -2217.30976220 Ry
     estimated scf accuracy    <       0.00000083 Ry

     total magnetization       =     0.02 Bohr mag/cell
     absolute magnetization    =     0.02 Bohr mag/cell

     iteration # 38     ecut=    90.00 Ry     beta= 0.20
     Davidson diagonalization with overlap
     ethr =  6.31E-10,  avg # of iterations =  1.0

     total cpu time spent up to now is     1234.4 secs

     total energy              =   -2217.30976203 Ry
     estimated scf accuracy    <       0.00000132 Ry

     total magnetization       =     0.02 Bohr mag/cell
     absolute magnetization    =     0.02 Bohr mag/cell

     iteration # 39     ecut=    90.00 Ry     beta= 0.20
     Davidson diagonalization with overlap
     ethr =  6.31E-10,  avg # of iterations =  1.0

     total cpu time spent up to now is     1263.4 secs

     total energy              =   -2217.30976192 Ry
     estimated scf accuracy    <       0.00000218 Ry

     total magnetization       =     0.01 Bohr mag/cell
     absolute magnetization    =     0.01 Bohr mag/cell

     iteration # 40     ecut=    90.00 Ry     beta= 0.20
     Davidson diagonalization with overlap
     ethr =  6.31E-10,  avg # of iterations =  1.0

     total cpu time spent up to now is     1292.3 secs

     total energy              =   -2217.30976205 Ry
     estimated scf accuracy    <       0.00000040 Ry

     total magnetization       =     0.01 Bohr mag/cell
     absolute magnetization    =     0.01 Bohr mag/cell

     iteration # 41     ecut=    90.00 Ry     beta= 0.20
     Davidson diagonalization with overlap
     ethr =  3.00E-10,  avg # of iterations =  1.1

     total cpu time spent up to now is     1321.4 secs

     total energy              =   -2217.30976204 Ry
     estimated scf accuracy    <       0.00000089 Ry

     total magnetization       =     0.01 Bohr mag/cell
     absolute magnetization    =     0.01 Bohr mag/cell

     iteration # 42     ecut=    90.00 Ry     beta= 0.20
     Davidson diagonalization with overlap
     ethr =  3.00E-10,  avg # of iterations =  1.0

     total cpu time spent up to now is     1350.2 secs

     total energy              =   -2217.30976205 Ry
     estimated scf accuracy    <       0.00000187 Ry

     total magnetization       =     0.01 Bohr mag/cell
     absolute magnetization    =     0.01 Bohr mag/cell

     iteration # 43     ecut=    90.00 Ry     beta= 0.20
     Davidson diagonalization with overlap
     ethr =  3.00E-10,  avg # of iterations =  1.0

     total cpu time spent up to now is     1379.1 secs

     total energy              =   -2217.30976202 Ry
     estimated scf accuracy    <       0.00000043 Ry

     total magnetization       =     0.01 Bohr mag/cell
     absolute magnetization    =     0.01 Bohr mag/cell

     iteration # 44     ecut=    90.00 Ry     beta= 0.20
     Davidson diagonalization with overlap
     ethr =  3.00E-10,  avg # of iterations =  1.0

     total cpu time spent up to now is     1408.0 secs

     total energy              =   -2217.30976193 Ry
     estimated scf accuracy    <       0.00000044 Ry

     total magnetization       =     0.01 Bohr mag/cell
     absolute magnetization    =     0.01 Bohr mag/cell

     iteration # 45     ecut=    90.00 Ry     beta= 0.20
     Davidson diagonalization with overlap
     ethr =  3.00E-10,  avg # of iterations =  1.0

     total cpu time spent up to now is     1436.9 secs

     total energy              =   -2217.30976194 Ry
     estimated scf accuracy    <       0.00000083 Ry

     total magnetization       =     0.00 Bohr mag/cell
     absolute magnetization    =     0.01 Bohr mag/cell

     iteration # 46     ecut=    90.00 Ry     beta= 0.20
     Davidson diagonalization with overlap
     ethr =  3.00E-10,  avg # of iterations =  1.0

     total cpu time spent up to now is     1465.7 secs

     total energy              =   -2217.30976189 Ry
     estimated scf accuracy    <       0.00000076 Ry

     total magnetization       =     0.00 Bohr mag/cell
     absolute magnetization    =     0.01 Bohr mag/cell

     iteration # 47     ecut=    90.00 Ry     beta= 0.20
     Davidson diagonalization with overlap
     ethr =  3.00E-10,  avg # of iterations =  1.0

     total cpu time spent up to now is     1494.6 secs

     total energy              =   -2217.30976192 Ry
     estimated scf accuracy    <       0.00000047 Ry

     total magnetization       =    -0.00 Bohr mag/cell
     absolute magnetization    =     0.01 Bohr mag/cell

     iteration # 48     ecut=    90.00 Ry     beta= 0.20
     Davidson diagonalization with overlap
     ethr =  3.00E-10,  avg # of iterations =  1.0

     total cpu time spent up to now is     1523.5 secs

     total energy              =   -2217.30976195 Ry
     estimated scf accuracy    <       0.00000016 Ry

     total magnetization       =    -0.00 Bohr mag/cell
     absolute magnetization    =     0.01 Bohr mag/cell

     iteration # 49     ecut=    90.00 Ry     beta= 0.20
     Davidson diagonalization with overlap
     ethr =  1.17E-10,  avg # of iterations =  1.0

     total cpu time spent up to now is     1552.3 secs

     total energy              =   -2217.30976197 Ry
     estimated scf accuracy    <       0.00000010 Ry

     total magnetization       =    -0.00 Bohr mag/cell
     absolute magnetization    =     0.01 Bohr mag/cell

     iteration # 50     ecut=    90.00 Ry     beta= 0.20
     Davidson diagonalization with overlap
     ethr =  7.71E-11,  avg # of iterations =  1.0

     total cpu time spent up to now is     1581.2 secs

     total energy              =   -2217.30976198 Ry
     estimated scf accuracy    <       0.00000024 Ry

     total magnetization       =    -0.00 Bohr mag/cell
     absolute magnetization    =     0.01 Bohr mag/cell

     iteration # 51     ecut=    90.00 Ry     beta= 0.20
     Davidson diagonalization with overlap
     ethr =  7.71E-11,  avg # of iterations =  1.0

     total cpu time spent up to now is     1610.0 secs

     total energy              =   -2217.30976199 Ry
     estimated scf accuracy    <       0.00000008 Ry

     total magnetization       =    -0.00 Bohr mag/cell
     absolute magnetization    =     0.01 Bohr mag/cell

     iteration # 52     ecut=    90.00 Ry     beta= 0.20
     Davidson diagonalization with overlap
     ethr =  6.41E-11,  avg # of iterations =  1.0

     total cpu time spent up to now is     1638.8 secs

     total energy              =   -2217.30976199 Ry
     estimated scf accuracy    <       0.00000011 Ry

     total magnetization       =    -0.00 Bohr mag/cell
     absolute magnetization    =     0.01 Bohr mag/cell

     iteration # 53     ecut=    90.00 Ry     beta= 0.20
     Davidson diagonalization with overlap
     ethr =  6.41E-11,  avg # of iterations =  1.0

     total cpu time spent up to now is     1667.6 secs

     total energy              =   -2217.30976199 Ry
     estimated scf accuracy    <       0.00000010 Ry

     total magnetization       =    -0.00 Bohr mag/cell
     absolute magnetization    =     0.01 Bohr mag/cell

     iteration # 54     ecut=    90.00 Ry     beta= 0.20
     Davidson diagonalization with overlap
     ethr =  6.41E-11,  avg # of iterations =  1.0

     total cpu time spent up to now is     1696.4 secs

     total energy              =   -2217.30976199 Ry
     estimated scf accuracy    <       0.00000009 Ry

     total magnetization       =    -0.00 Bohr mag/cell
     absolute magnetization    =     0.01 Bohr mag/cell

     iteration # 55     ecut=    90.00 Ry     beta= 0.20
     Davidson diagonalization with overlap
     ethr =  6.41E-11,  avg # of iterations =  1.0

     total cpu time spent up to now is     1725.1 secs

     total energy              =   -2217.30976199 Ry
     estimated scf accuracy    <       0.00000009 Ry

     total magnetization       =    -0.00 Bohr mag/cell
     absolute magnetization    =     0.01 Bohr mag/cell

     iteration # 56     ecut=    90.00 Ry     beta= 0.20
     Davidson diagonalization with overlap
     ethr =  6.41E-11,  avg # of iterations =  1.0

     total cpu time spent up to now is     1753.9 secs

     total energy              =   -2217.30976199 Ry
     estimated scf accuracy    <       0.00000012 Ry

     total magnetization       =    -0.00 Bohr mag/cell
     absolute magnetization    =     0.01 Bohr mag/cell

     iteration # 57     ecut=    90.00 Ry     beta= 0.20
     Davidson diagonalization with overlap
     ethr =  6.41E-11,  avg # of iterations =  1.0

     total cpu time spent up to now is     1782.8 secs

     total energy              =   -2217.30976200 Ry
     estimated scf accuracy    <       0.00000010 Ry

     total magnetization       =    -0.00 Bohr mag/cell
     absolute magnetization    =     0.01 Bohr mag/cell

     iteration # 58     ecut=    90.00 Ry     beta= 0.20
     Davidson diagonalization with overlap
     ethr =  6.41E-11,  avg # of iterations =  1.0

     total cpu time spent up to now is     1811.5 secs

     total energy              =   -2217.30976198 Ry
     estimated scf accuracy    <       0.00000012 Ry

     total magnetization       =    -0.00 Bohr mag/cell
     absolute magnetization    =     0.01 Bohr mag/cell

     iteration # 59     ecut=    90.00 Ry     beta= 0.20
     Davidson diagonalization with overlap
     ethr =  6.41E-11,  avg # of iterations =  1.0

     total cpu time spent up to now is     1840.3 secs

     total energy              =   -2217.30976196 Ry
     estimated scf accuracy    <       0.00000019 Ry

     total magnetization       =    -0.00 Bohr mag/cell
     absolute magnetization    =     0.01 Bohr mag/cell

     iteration # 60     ecut=    90.00 Ry     beta= 0.20
     Davidson diagonalization with overlap
     ethr =  6.41E-11,  avg # of iterations =  1.0

     total cpu time spent up to now is     1869.1 secs

     total energy              =   -2217.30976197 Ry
     estimated scf accuracy    <       0.00000007 Ry

     total magnetization       =    -0.00 Bohr mag/cell
     absolute magnetization    =     0.01 Bohr mag/cell

     iteration # 61     ecut=    90.00 Ry     beta= 0.20
     Davidson diagonalization with overlap
     ethr =  5.30E-11,  avg # of iterations =  1.0

     total cpu time spent up to now is     1897.9 secs

     total energy              =   -2217.30976193 Ry
     estimated scf accuracy    <       0.00000014 Ry

     total magnetization       =    -0.00 Bohr mag/cell
     absolute magnetization    =     0.01 Bohr mag/cell

     iteration # 62     ecut=    90.00 Ry     beta= 0.20
     Davidson diagonalization with overlap
     ethr =  5.30E-11,  avg # of iterations =  1.0

     total cpu time spent up to now is     1926.7 secs

     total energy              =   -2217.30976195 Ry
     estimated scf accuracy    <       0.00000047 Ry

     total magnetization       =    -0.00 Bohr mag/cell
     absolute magnetization    =     0.01 Bohr mag/cell

     iteration # 63     ecut=    90.00 Ry     beta= 0.20
     Davidson diagonalization with overlap
     ethr =  5.30E-11,  avg # of iterations =  1.1

     total cpu time spent up to now is     1955.6 secs

     total energy              =   -2217.30976195 Ry
     estimated scf accuracy    <       0.00000099 Ry

     total magnetization       =    -0.00 Bohr mag/cell
     absolute magnetization    =     0.01 Bohr mag/cell

     iteration # 64     ecut=    90.00 Ry     beta= 0.20
     Davidson diagonalization with overlap
     ethr =  5.30E-11,  avg # of iterations =  1.0

     total cpu time spent up to now is     1984.5 secs

     total energy              =   -2217.30976196 Ry
     estimated scf accuracy    <       0.00000017 Ry

     total magnetization       =    -0.00 Bohr mag/cell
     absolute magnetization    =     0.01 Bohr mag/cell

     iteration # 65     ecut=    90.00 Ry     beta= 0.20
     Davidson diagonalization with overlap
     ethr =  5.30E-11,  avg # of iterations =  1.0

     total cpu time spent up to now is     2013.3 secs

     total energy              =   -2217.30976196 Ry
     estimated scf accuracy    <       0.00000019 Ry

     total magnetization       =    -0.00 Bohr mag/cell
     absolute magnetization    =     0.01 Bohr mag/cell

     iteration # 66     ecut=    90.00 Ry     beta= 0.20
     Davidson diagonalization with overlap
     ethr =  5.30E-11,  avg # of iterations =  1.0

     total cpu time spent up to now is     2042.0 secs

     total energy              =   -2217.30976197 Ry
     estimated scf accuracy    <       0.00000011 Ry

     total magnetization       =    -0.00 Bohr mag/cell
     absolute magnetization    =     0.01 Bohr mag/cell

     iteration # 67     ecut=    90.00 Ry     beta= 0.20
     Davidson diagonalization with overlap
     ethr =  5.30E-11,  avg # of iterations =  1.0

     total cpu time spent up to now is     2070.8 secs

     total energy              =   -2217.30976198 Ry
     estimated scf accuracy    <       0.00000009 Ry

     total magnetization       =    -0.00 Bohr mag/cell
     absolute magnetization    =     0.01 Bohr mag/cell

     iteration # 68     ecut=    90.00 Ry     beta= 0.20
     Davidson diagonalization with overlap
     ethr =  5.30E-11,  avg # of iterations =  1.0

     total cpu time spent up to now is     2099.6 secs

     total energy              =   -2217.30976196 Ry
     estimated scf accuracy    <       0.00000009 Ry

     total magnetization       =    -0.00 Bohr mag/cell
     absolute magnetization    =     0.01 Bohr mag/cell

     iteration # 69     ecut=    90.00 Ry     beta= 0.20
     Davidson diagonalization with overlap
     ethr =  5.30E-11,  avg # of iterations =  1.0

     total cpu time spent up to now is     2128.4 secs

     total energy              =   -2217.30976193 Ry
     estimated scf accuracy    <       0.00000011 Ry

     total magnetization       =    -0.00 Bohr mag/cell
     absolute magnetization    =     0.01 Bohr mag/cell

     iteration # 70     ecut=    90.00 Ry     beta= 0.20
     Davidson diagonalization with overlap
     ethr =  5.30E-11,  avg # of iterations =  1.0

     total cpu time spent up to now is     2157.2 secs

     total energy              =   -2217.30976194 Ry
     estimated scf accuracy    <       0.00000006 Ry

     total magnetization       =     0.00 Bohr mag/cell
     absolute magnetization    =     0.01 Bohr mag/cell

     iteration # 71     ecut=    90.00 Ry     beta= 0.20
     Davidson diagonalization with overlap
     ethr =  4.79E-11,  avg # of iterations =  1.0

     total cpu time spent up to now is     2186.0 secs

     total energy              =   -2217.30976194 Ry
     estimated scf accuracy    <       0.00000023 Ry

     total magnetization       =     0.00 Bohr mag/cell
     absolute magnetization    =     0.01 Bohr mag/cell

     iteration # 72     ecut=    90.00 Ry     beta= 0.20
     Davidson diagonalization with overlap
     ethr =  4.79E-11,  avg # of iterations =  1.0

     total cpu time spent up to now is     2214.8 secs

     total energy              =   -2217.30976195 Ry
     estimated scf accuracy    <       0.00000003 Ry

     total magnetization       =     0.00 Bohr mag/cell
     absolute magnetization    =     0.01 Bohr mag/cell

     iteration # 73     ecut=    90.00 Ry     beta= 0.20
     Davidson diagonalization with overlap
     ethr =  2.13E-11,  avg # of iterations =  1.0

     total cpu time spent up to now is     2243.6 secs

     total energy              =   -2217.30976195 Ry
     estimated scf accuracy    <       0.00000003 Ry

     total magnetization       =     0.00 Bohr mag/cell
     absolute magnetization    =     0.01 Bohr mag/cell

     iteration # 74     ecut=    90.00 Ry     beta= 0.20
     Davidson diagonalization with overlap
     ethr =  1.95E-11,  avg # of iterations =  1.0

     total cpu time spent up to now is     2272.5 secs

     total energy              =   -2217.30976196 Ry
     estimated scf accuracy    <       0.00000002 Ry

     total magnetization       =     0.00 Bohr mag/cell
     absolute magnetization    =     0.01 Bohr mag/cell

     iteration # 75     ecut=    90.00 Ry     beta= 0.20
     Davidson diagonalization with overlap
     ethr =  1.82E-11,  avg # of iterations =  1.0

     total cpu time spent up to now is     2301.3 secs

     total energy              =   -2217.30976196 Ry
     estimated scf accuracy    <       0.00000007 Ry

     total magnetization       =     0.00 Bohr mag/cell
     absolute magnetization    =     0.01 Bohr mag/cell

     iteration # 76     ecut=    90.00 Ry     beta= 0.20
     Davidson diagonalization with overlap
     ethr =  1.82E-11,  avg # of iterations =  1.0

     total cpu time spent up to now is     2330.1 secs

     total energy              =   -2217.30976196 Ry
     estimated scf accuracy    <       0.00000003 Ry

     total magnetization       =     0.00 Bohr mag/cell
     absolute magnetization    =     0.01 Bohr mag/cell

     iteration # 77     ecut=    90.00 Ry     beta= 0.20
     Davidson diagonalization with overlap
     ethr =  1.82E-11,  avg # of iterations =  1.0

     total cpu time spent up to now is     2358.7 secs

     total energy              =   -2217.30976196 Ry
     estimated scf accuracy    <       0.00000006 Ry

     total magnetization       =     0.00 Bohr mag/cell
     absolute magnetization    =     0.01 Bohr mag/cell

     iteration # 78     ecut=    90.00 Ry     beta= 0.20
     Davidson diagonalization with overlap
     ethr =  1.82E-11,  avg # of iterations =  1.0

     total cpu time spent up to now is     2387.4 secs

     total energy              =   -2217.30976196 Ry
     estimated scf accuracy    <       0.00000003 Ry

     total magnetization       =     0.00 Bohr mag/cell
     absolute magnetization    =     0.01 Bohr mag/cell

     iteration # 79     ecut=    90.00 Ry     beta= 0.20
     Davidson diagonalization with overlap
     ethr =  1.82E-11,  avg # of iterations =  1.0

     total cpu time spent up to now is     2416.0 secs

     total energy              =   -2217.30976196 Ry
     estimated scf accuracy    <       0.00000006 Ry

     total magnetization       =     0.00 Bohr mag/cell
     absolute magnetization    =     0.01 Bohr mag/cell

     iteration # 80     ecut=    90.00 Ry     beta= 0.20
     Davidson diagonalization with overlap
     ethr =  1.82E-11,  avg # of iterations =  1.0

     total cpu time spent up to now is     2444.6 secs

     total energy              =   -2217.30976196 Ry
     estimated scf accuracy    <       0.00000003 Ry

     total magnetization       =     0.00 Bohr mag/cell
     absolute magnetization    =     0.01 Bohr mag/cell

     iteration # 81     ecut=    90.00 Ry     beta= 0.20
     Davidson diagonalization with overlap
     ethr =  1.82E-11,  avg # of iterations =  1.0

     total cpu time spent up to now is     2473.2 secs

     total energy              =   -2217.30976196 Ry
     estimated scf accuracy    <       0.00000012 Ry

     total magnetization       =     0.00 Bohr mag/cell
     absolute magnetization    =     0.01 Bohr mag/cell

     iteration # 82     ecut=    90.00 Ry     beta= 0.20
     Davidson diagonalization with overlap
     ethr =  1.82E-11,  avg # of iterations =  1.0

     total cpu time spent up to now is     2501.8 secs

     total energy              =   -2217.30976196 Ry
     estimated scf accuracy    <       0.00000014 Ry

     total magnetization       =     0.00 Bohr mag/cell
     absolute magnetization    =     0.01 Bohr mag/cell

     iteration # 83     ecut=    90.00 Ry     beta= 0.20
     Davidson diagonalization with overlap
     ethr =  1.82E-11,  avg # of iterations =  1.0

     total cpu time spent up to now is     2530.5 secs

     total energy              =   -2217.30976196 Ry
     estimated scf accuracy    <       0.00000012 Ry

     total magnetization       =     0.00 Bohr mag/cell
     absolute magnetization    =     0.01 Bohr mag/cell

     iteration # 84     ecut=    90.00 Ry     beta= 0.20
     Davidson diagonalization with overlap
     ethr =  1.82E-11,  avg # of iterations =  1.0

     total cpu time spent up to now is     2559.1 secs

     total energy              =   -2217.30976197 Ry
     estimated scf accuracy    <       0.00000004 Ry

     total magnetization       =     0.00 Bohr mag/cell
     absolute magnetization    =     0.01 Bohr mag/cell

     iteration # 85     ecut=    90.00 Ry     beta= 0.20
     Davidson diagonalization with overlap
     ethr =  1.82E-11,  avg # of iterations =  1.0

     total cpu time spent up to now is     2587.7 secs

     total energy              =   -2217.30976197 Ry
     estimated scf accuracy    <       0.00000009 Ry

     total magnetization       =     0.00 Bohr mag/cell
     absolute magnetization    =     0.01 Bohr mag/cell

     iteration # 86     ecut=    90.00 Ry     beta= 0.20
     Davidson diagonalization with overlap
     ethr =  1.82E-11,  avg # of iterations =  1.0

     total cpu time spent up to now is     2616.3 secs

     total energy              =   -2217.30976198 Ry
     estimated scf accuracy    <       0.00000014 Ry

     total magnetization       =     0.00 Bohr mag/cell
     absolute magnetization    =     0.01 Bohr mag/cell

     iteration # 87     ecut=    90.00 Ry     beta= 0.20
     Davidson diagonalization with overlap
     ethr =  1.82E-11,  avg # of iterations =  1.0

     total cpu time spent up to now is     2644.9 secs

     total energy              =   -2217.30976198 Ry
     estimated scf accuracy    <       0.00000003 Ry

     total magnetization       =     0.00 Bohr mag/cell
     absolute magnetization    =     0.01 Bohr mag/cell

     iteration # 88     ecut=    90.00 Ry     beta= 0.20
     Davidson diagonalization with overlap
     ethr =  1.82E-11,  avg # of iterations =  1.0

     total cpu time spent up to now is     2673.5 secs

     total energy              =   -2217.30976196 Ry
     estimated scf accuracy    <       0.00000003 Ry

     total magnetization       =     0.00 Bohr mag/cell
     absolute magnetization    =     0.01 Bohr mag/cell

     iteration # 89     ecut=    90.00 Ry     beta= 0.20
     Davidson diagonalization with overlap
     ethr =  1.82E-11,  avg # of iterations =  1.0

     total cpu time spent up to now is     2702.1 secs

     total energy              =   -2217.30976197 Ry
     estimated scf accuracy    <       0.00000006 Ry

     total magnetization       =     0.00 Bohr mag/cell
     absolute magnetization    =     0.01 Bohr mag/cell

     iteration # 90     ecut=    90.00 Ry     beta= 0.20
     Davidson diagonalization with overlap
     ethr =  1.82E-11,  avg # of iterations =  1.0

     total cpu time spent up to now is     2730.6 secs

     total energy              =   -2217.30976198 Ry
     estimated scf accuracy    <       0.00000003 Ry

     total magnetization       =     0.00 Bohr mag/cell
     absolute magnetization    =     0.01 Bohr mag/cell

     iteration # 91     ecut=    90.00 Ry     beta= 0.20
     Davidson diagonalization with overlap
     ethr =  1.82E-11,  avg # of iterations =  1.0

     total cpu time spent up to now is     2759.2 secs

     total energy              =   -2217.30976198 Ry
     estimated scf accuracy    <       0.00000003 Ry

     total magnetization       =     0.00 Bohr mag/cell
     absolute magnetization    =     0.01 Bohr mag/cell

     iteration # 92     ecut=    90.00 Ry     beta= 0.20
     Davidson diagonalization with overlap
     ethr =  1.82E-11,  avg # of iterations =  1.0

     total cpu time spent up to now is     2787.8 secs

     total energy              =   -2217.30976199 Ry
     estimated scf accuracy    <       0.00000004 Ry

     total magnetization       =     0.00 Bohr mag/cell
     absolute magnetization    =     0.01 Bohr mag/cell

     iteration # 93     ecut=    90.00 Ry     beta= 0.20
     Davidson diagonalization with overlap
     ethr =  1.82E-11,  avg # of iterations =  1.0

     total cpu time spent up to now is     2816.4 secs

     total energy              =   -2217.30976198 Ry
     estimated scf accuracy    <       0.00000004 Ry

     total magnetization       =     0.00 Bohr mag/cell
     absolute magnetization    =     0.01 Bohr mag/cell

     iteration # 94     ecut=    90.00 Ry     beta= 0.20
     Davidson diagonalization with overlap
     ethr =  1.82E-11,  avg # of iterations =  1.0

     total cpu time spent up to now is     2844.9 secs

     total energy              =   -2217.30976198 Ry
     estimated scf accuracy    <       0.00000003 Ry

     total magnetization       =     0.00 Bohr mag/cell
     absolute magnetization    =     0.01 Bohr mag/cell

     iteration # 95     ecut=    90.00 Ry     beta= 0.20
     Davidson diagonalization with overlap
     ethr =  1.82E-11,  avg # of iterations =  1.0

     total cpu time spent up to now is     2873.5 secs

     total energy              =   -2217.30976197 Ry
     estimated scf accuracy    <       0.00000004 Ry

     total magnetization       =     0.00 Bohr mag/cell
     absolute magnetization    =     0.01 Bohr mag/cell

     iteration # 96     ecut=    90.00 Ry     beta= 0.20
     Davidson diagonalization with overlap
     ethr =  1.82E-11,  avg # of iterations =  1.0

     total cpu time spent up to now is     2902.1 secs

     total energy              =   -2217.30976198 Ry
     estimated scf accuracy    <       0.00000006 Ry

     total magnetization       =     0.00 Bohr mag/cell
     absolute magnetization    =     0.01 Bohr mag/cell

     iteration # 97     ecut=    90.00 Ry     beta= 0.20
     Davidson diagonalization with overlap
     ethr =  1.82E-11,  avg # of iterations =  1.0

     total cpu time spent up to now is     2930.6 secs

     total energy              =   -2217.30976199 Ry
     estimated scf accuracy    <       0.00000005 Ry

     total magnetization       =     0.00 Bohr mag/cell
     absolute magnetization    =     0.01 Bohr mag/cell

     iteration # 98     ecut=    90.00 Ry     beta= 0.20
     Davidson diagonalization with overlap
     ethr =  1.82E-11,  avg # of iterations =  1.0

     total cpu time spent up to now is     2959.2 secs

     total energy              =   -2217.30976199 Ry
     estimated scf accuracy    <       0.00000003 Ry

     total magnetization       =     0.00 Bohr mag/cell
     absolute magnetization    =     0.01 Bohr mag/cell

     iteration # 99     ecut=    90.00 Ry     beta= 0.20
     Davidson diagonalization with overlap
     ethr =  1.82E-11,  avg # of iterations =  1.0

     total cpu time spent up to now is     2987.9 secs

     total energy              =   -2217.30976199 Ry
     estimated scf accuracy    <       0.00000005 Ry

     total magnetization       =     0.00 Bohr mag/cell
     absolute magnetization    =     0.01 Bohr mag/cell

     iteration #100     ecut=    90.00 Ry     beta= 0.20
     Davidson diagonalization with overlap
     ethr =  1.82E-11,  avg # of iterations =  1.0

     total cpu time spent up to now is     3016.6 secs

     total energy              =   -2217.30976200 Ry
     estimated scf accuracy    <       0.00000002 Ry

     total magnetization       =     0.00 Bohr mag/cell
     absolute magnetization    =     0.01 Bohr mag/cell

     iteration #101     ecut=    90.00 Ry     beta= 0.20
     Davidson diagonalization with overlap
     ethr =  1.82E-11,  avg # of iterations =  1.0

     total cpu time spent up to now is     3045.3 secs

     total energy              =   -2217.30976200 Ry
     estimated scf accuracy    <       0.00000003 Ry

     total magnetization       =     0.00 Bohr mag/cell
     absolute magnetization    =     0.01 Bohr mag/cell

     iteration #102     ecut=    90.00 Ry     beta= 0.20
     Davidson diagonalization with overlap
     ethr =  1.82E-11,  avg # of iterations =  1.0

     total cpu time spent up to now is     3074.0 secs

     total energy              =   -2217.30976199 Ry
     estimated scf accuracy    <       0.00000003 Ry

     total magnetization       =     0.00 Bohr mag/cell
     absolute magnetization    =     0.01 Bohr mag/cell

     iteration #103     ecut=    90.00 Ry     beta= 0.20
     Davidson diagonalization with overlap
     ethr =  1.82E-11,  avg # of iterations =  1.0

     total cpu time spent up to now is     3102.8 secs

     total energy              =   -2217.30976198 Ry
     estimated scf accuracy    <       0.00000007 Ry

     total magnetization       =     0.00 Bohr mag/cell
     absolute magnetization    =     0.01 Bohr mag/cell

     iteration #104     ecut=    90.00 Ry     beta= 0.20
     Davidson diagonalization with overlap
     ethr =  1.82E-11,  avg # of iterations =  1.0

     total cpu time spent up to now is     3131.5 secs

     total energy              =   -2217.30976184 Ry
     estimated scf accuracy    <       0.00000005 Ry

     total magnetization       =    -0.00 Bohr mag/cell
     absolute magnetization    =     0.01 Bohr mag/cell

     iteration #105     ecut=    90.00 Ry     beta= 0.20
     Davidson diagonalization with overlap
     ethr =  1.82E-11,  avg # of iterations =  2.6

     total cpu time spent up to now is     3170.0 secs

     total energy              =   -2217.30976193 Ry
     estimated scf accuracy    <       0.00000004 Ry

     total magnetization       =     0.00 Bohr mag/cell
     absolute magnetization    =     0.01 Bohr mag/cell

     iteration #106     ecut=    90.00 Ry     beta= 0.20
     Davidson diagonalization with overlap
     ethr =  1.82E-11,  avg # of iterations =  1.0

     total cpu time spent up to now is     3198.7 secs

     total energy              =   -2217.30976193 Ry
     estimated scf accuracy    <       0.00000005 Ry

     total magnetization       =     0.00 Bohr mag/cell
     absolute magnetization    =     0.01 Bohr mag/cell

     iteration #107     ecut=    90.00 Ry     beta= 0.20
     Davidson diagonalization with overlap
     ethr =  1.82E-11,  avg # of iterations =  1.0

     total cpu time spent up to now is     3227.4 secs

     total energy              =   -2217.30976194 Ry
     estimated scf accuracy    <       0.00000003 Ry

     total magnetization       =     0.00 Bohr mag/cell
     absolute magnetization    =     0.01 Bohr mag/cell

     iteration #108     ecut=    90.00 Ry     beta= 0.20
     Davidson diagonalization with overlap
     ethr =  1.82E-11,  avg # of iterations =  1.0

     total cpu time spent up to now is     3256.1 secs

     total energy              =   -2217.30976195 Ry
     estimated scf accuracy    <       0.00000003 Ry

     total magnetization       =     0.00 Bohr mag/cell
     absolute magnetization    =     0.01 Bohr mag/cell

     iteration #109     ecut=    90.00 Ry     beta= 0.20
     Davidson diagonalization with overlap
     ethr =  1.82E-11,  avg # of iterations =  1.0

     total cpu time spent up to now is     3284.8 secs

     total energy              =   -2217.30976194 Ry
     estimated scf accuracy    <       0.00000003 Ry

     total magnetization       =     0.00 Bohr mag/cell
     absolute magnetization    =     0.01 Bohr mag/cell

     iteration #110     ecut=    90.00 Ry     beta= 0.20
     Davidson diagonalization with overlap
     ethr =  1.82E-11,  avg # of iterations =  1.0

     total cpu time spent up to now is     3313.4 secs

     total energy              =   -2217.30976193 Ry
     estimated scf accuracy    <       0.00000002 Ry

     total magnetization       =     0.00 Bohr mag/cell
     absolute magnetization    =     0.01 Bohr mag/cell

     iteration #111     ecut=    90.00 Ry     beta= 0.20
     Davidson diagonalization with overlap
     ethr =  1.73E-11,  avg # of iterations =  1.0

     total cpu time spent up to now is     3342.2 secs

     total energy              =   -2217.30976190 Ry
     estimated scf accuracy    <       0.00000011 Ry

     total magnetization       =     0.00 Bohr mag/cell
     absolute magnetization    =     0.01 Bohr mag/cell

     iteration #112     ecut=    90.00 Ry     beta= 0.20
     Davidson diagonalization with overlap
     ethr =  1.73E-11,  avg # of iterations =  1.9

     total cpu time spent up to now is     3373.9 secs

     total energy              =   -2217.30976192 Ry
     estimated scf accuracy    <       0.00000002 Ry

     total magnetization       =     0.00 Bohr mag/cell
     absolute magnetization    =     0.00 Bohr mag/cell

     iteration #113     ecut=    90.00 Ry     beta= 0.20
     Davidson diagonalization with overlap
     ethr =  1.23E-11,  avg # of iterations =  1.0

     total cpu time spent up to now is     3402.5 secs

     total energy              =   -2217.30976192 Ry
     estimated scf accuracy    <       0.00000003 Ry

     total magnetization       =     0.00 Bohr mag/cell
     absolute magnetization    =     0.00 Bohr mag/cell

     iteration #114     ecut=    90.00 Ry     beta= 0.20
     Davidson diagonalization with overlap
     ethr =  1.23E-11,  avg # of iterations =  1.0

     total cpu time spent up to now is     3431.1 secs

     total energy              =   -2217.30976191 Ry
     estimated scf accuracy    <       0.00000002 Ry

     total magnetization       =     0.00 Bohr mag/cell
     absolute magnetization    =     0.01 Bohr mag/cell

     iteration #115     ecut=    90.00 Ry     beta= 0.20
     Davidson diagonalization with overlap
     ethr =  1.23E-11,  avg # of iterations =  1.0

     total cpu time spent up to now is     3459.8 secs

     total energy              =   -2217.30976191 Ry
     estimated scf accuracy    <       0.00000003 Ry

     total magnetization       =     0.00 Bohr mag/cell
     absolute magnetization    =     0.00 Bohr mag/cell

     iteration #116     ecut=    90.00 Ry     beta= 0.20
     Davidson diagonalization with overlap
     ethr =  1.23E-11,  avg # of iterations =  1.0

     total cpu time spent up to now is     3488.5 secs

     total energy              =   -2217.30976191 Ry
     estimated scf accuracy    <       0.00000003 Ry

     total magnetization       =     0.00 Bohr mag/cell
     absolute magnetization    =     0.00 Bohr mag/cell

     iteration #117     ecut=    90.00 Ry     beta= 0.20
     Davidson diagonalization with overlap
     ethr =  1.23E-11,  avg # of iterations =  1.0

     total cpu time spent up to now is     3517.1 secs

     total energy              =   -2217.30976192 Ry
     estimated scf accuracy    <       0.00000003 Ry

     total magnetization       =     0.00 Bohr mag/cell
     absolute magnetization    =     0.00 Bohr mag/cell

     iteration #118     ecut=    90.00 Ry     beta= 0.20
     Davidson diagonalization with overlap
     ethr =  1.23E-11,  avg # of iterations =  1.0

     total cpu time spent up to now is     3545.7 secs

     total energy              =   -2217.30976192 Ry
     estimated scf accuracy    <       0.00000003 Ry

     total magnetization       =     0.00 Bohr mag/cell
     absolute magnetization    =     0.00 Bohr mag/cell

     iteration #119     ecut=    90.00 Ry     beta= 0.20
     Davidson diagonalization with overlap
     ethr =  1.23E-11,  avg # of iterations =  1.0

     total cpu time spent up to now is     3574.3 secs

     total energy              =   -2217.30976191 Ry
     estimated scf accuracy    <       0.00000003 Ry

     total magnetization       =     0.00 Bohr mag/cell
     absolute magnetization    =     0.00 Bohr mag/cell

     iteration #120     ecut=    90.00 Ry     beta= 0.20
     Davidson diagonalization with overlap
     ethr =  1.23E-11,  avg # of iterations =  1.0

     total cpu time spent up to now is     3602.9 secs

     total energy              =   -2217.30976189 Ry
     estimated scf accuracy    <       0.00000004 Ry

     total magnetization       =     0.00 Bohr mag/cell
     absolute magnetization    =     0.00 Bohr mag/cell

     iteration #121     ecut=    90.00 Ry     beta= 0.20
     Davidson diagonalization with overlap
     ethr =  1.23E-11,  avg # of iterations =  2.1

     total cpu time spent up to now is     3635.5 secs

     total energy              =   -2217.30976190 Ry
     estimated scf accuracy    <       0.00000007 Ry

     total magnetization       =    -0.00 Bohr mag/cell
     absolute magnetization    =     0.00 Bohr mag/cell

     iteration #122     ecut=    90.00 Ry     beta= 0.20
     Davidson diagonalization with overlap
     ethr =  1.23E-11,  avg # of iterations =  1.0

     total cpu time spent up to now is     3664.4 secs

     total energy              =   -2217.30976188 Ry
     estimated scf accuracy    <       0.00000010 Ry

     total magnetization       =     0.00 Bohr mag/cell
     absolute magnetization    =     0.00 Bohr mag/cell

     iteration #123     ecut=    90.00 Ry     beta= 0.20
     Davidson diagonalization with overlap
     ethr =  1.23E-11,  avg # of iterations =  1.8

     total cpu time spent up to now is     3696.0 secs

     total energy              =   -2217.30976189 Ry
     estimated scf accuracy    <       0.00000004 Ry

     total magnetization       =    -0.00 Bohr mag/cell
     absolute magnetization    =     0.00 Bohr mag/cell

     iteration #124     ecut=    90.00 Ry     beta= 0.20
     Davidson diagonalization with overlap
     ethr =  1.23E-11,  avg # of iterations =  2.2

     total cpu time spent up to now is     3729.9 secs

     total energy              =   -2217.30976187 Ry
     estimated scf accuracy    <       0.00000098 Ry

     total magnetization       =     0.00 Bohr mag/cell
     absolute magnetization    =     0.00 Bohr mag/cell

     iteration #125     ecut=    90.00 Ry     beta= 0.20
     Davidson diagonalization with overlap
     ethr =  1.23E-11,  avg # of iterations =  2.1

     total cpu time spent up to now is     3762.3 secs

     total energy              =   -2217.30976189 Ry
     estimated scf accuracy    <       0.00000005 Ry

     total magnetization       =     0.00 Bohr mag/cell
     absolute magnetization    =     0.00 Bohr mag/cell

     iteration #126     ecut=    90.00 Ry     beta= 0.20
     Davidson diagonalization with overlap
     ethr =  1.23E-11,  avg # of iterations =  1.0

     total cpu time spent up to now is     3791.0 secs

     total energy              =   -2217.30976189 Ry
     estimated scf accuracy    <       0.00000002 Ry

     total magnetization       =    -0.00 Bohr mag/cell
     absolute magnetization    =     0.00 Bohr mag/cell

     iteration #127     ecut=    90.00 Ry     beta= 0.20
     Davidson diagonalization with overlap
     ethr =  1.23E-11,  avg # of iterations =  1.0

     Magnetic moment per site:
     atom:    1    charge:   16.3750    magn:    0.0002    constr:    0.0000
     atom:    2    charge:   12.9102    magn:   -0.0001    constr:    0.0000
     atom:    3    charge:   16.3750    magn:    0.0001    constr:    0.0000
     atom:    4    charge:   12.9102    magn:    0.0002    constr:    0.0000
     atom:    5    charge:   16.3751    magn:   -0.0004    constr:    0.0000
     atom:    6    charge:   12.9102    magn:    0.0001    constr:    0.0000
     atom:    7    charge:   16.3751    magn:   -0.0003    constr:    0.0000
     atom:    8    charge:   12.9102    magn:   -0.0000    constr:    0.0000

     total cpu time spent up to now is     3819.9 secs

     End of self-consistent calculation

     Number of k-points >= 100: set verbosity='high' to print the bands.

     the Fermi energy is    16.2423 ev

!    total energy              =   -2217.30976189 Ry
     estimated scf accuracy    <          6.1E-09 Ry
     smearing contrib. (-TS)   =      -0.01993121 Ry
     internal energy E=F+TS    =   -2217.28983069 Ry

     The total energy is F=E-TS. E is the sum of the following terms:
     one-electron contribution =   -1244.24984598 Ry
     hartree contribution      =     692.86996317 Ry
     xc contribution           =    -247.92174252 Ry
     ewald contribution        =   -1417.98820536 Ry

     total magnetization       =    -0.00 Bohr mag/cell
     absolute magnetization    =     0.00 Bohr mag/cell

     convergence has been achieved in 127 iterations

     Forces acting on atoms (cartesian axes, Ry/au):

     atom    1 type  1   force =    -0.00008632   -0.00024554    0.00037485
     atom    2 type  2   force =    -0.00031464    0.00036223   -0.00057576
     atom    3 type  1   force =    -0.00008628   -0.00024555    0.00037493
     atom    4 type  2   force =    -0.00031467    0.00036225   -0.00057570
     atom    5 type  1   force =    -0.00013897   -0.00002793    0.00005006
     atom    6 type  2   force =     0.00054002   -0.00008886    0.00015067
     atom    7 type  1   force =    -0.00013911   -0.00002774    0.00005022
     atom    8 type  2   force =     0.00053996   -0.00008885    0.00015073

     Total force =     0.001493     Total SCF correction =     0.000001


     Computing stress (Cartesian axis) and pressure

          total   stress  (Ry/bohr**3)                   (kbar)     P=        1.41
   0.00000954   0.00000778  -0.00000001            1.40        1.14       -0.00
   0.00000778   0.00000934   0.00000010            1.14        1.37        0.01
  -0.00000001   0.00000010   0.00000978           -0.00        0.01        1.44

     Energy error            =      7.0E-07
     Gradient error          =      5.8E-04

     number of scf cycles    =   4
     number of bfgs steps    =   2

     energy   old            =   -2217.3097625911 Ry
     energy   new            =   -2217.3097618932 Ry

     CASE: energy  _new > energy  _old

     new trust radius        =       0.0115377280 bohr
     new conv_thr            =       0.0000000100 Ry


ATOMIC_POSITIONS (angstrom)
Ni            0.0112435787        2.3119630876        0.0062802864
Mn            2.3177669477       -0.0057607222        2.3238007420
Ni           -0.0003456733       -0.0059372622        2.3241802300
Mn            2.3293564444        2.3121392684        0.0059007501
Ni            2.3130999188       -0.0005630902       -0.0037532871
Mn            0.0107324128        2.3120041283        2.3240909536
Ni            2.3246894722        2.3173371455        2.3141468123
Mn           -0.0008570932       -0.0058958788        0.0061909755



     Writing output data file ./pwscf.save/
     NEW-OLD atomic charge density approx. for the potential

     Check: negative core charge=   -0.000015
     Generating pointlists ...

     total cpu time spent up to now is     3856.3 secs

     Self-consistent Calculation

     iteration #  1     ecut=    90.00 Ry     beta= 0.20
     Davidson diagonalization with overlap
     ethr =  1.00E-06,  avg # of iterations =  6.0

     total cpu time spent up to now is     3930.9 secs

     total energy              =   -2217.30973848 Ry
     estimated scf accuracy    <       0.00051834 Ry

     total magnetization       =     0.00 Bohr mag/cell
     absolute magnetization    =     0.00 Bohr mag/cell

     iteration #  2     ecut=    90.00 Ry     beta= 0.20
     Davidson diagonalization with overlap
     ethr =  3.93E-07,  avg # of iterations =  2.0

     total cpu time spent up to now is     3964.4 secs

     total energy              =   -2217.30969786 Ry
     estimated scf accuracy    <       0.00050635 Ry

     total magnetization       =     0.00 Bohr mag/cell
     absolute magnetization    =     0.00 Bohr mag/cell

     iteration #  3     ecut=    90.00 Ry     beta= 0.20
     Davidson diagonalization with overlap
     ethr =  3.84E-07,  avg # of iterations =  1.6

     total cpu time spent up to now is     3995.1 secs

     total energy              =   -2217.30951904 Ry
     estimated scf accuracy    <       0.01898198 Ry

     total magnetization       =     0.00 Bohr mag/cell
     absolute magnetization    =     0.00 Bohr mag/cell

     iteration #  4     ecut=    90.00 Ry     beta= 0.20
     Davidson diagonalization with overlap
     ethr =  3.84E-07,  avg # of iterations =  1.2

     total cpu time spent up to now is     4024.5 secs

     total energy              =   -2217.30975852 Ry
     estimated scf accuracy    <       0.00009069 Ry

     total magnetization       =     0.00 Bohr mag/cell
     absolute magnetization    =     0.00 Bohr mag/cell

     iteration #  5     ecut=    90.00 Ry     beta= 0.20
     Davidson diagonalization with overlap
     ethr =  6.87E-08,  avg # of iterations =  1.2

     total cpu time spent up to now is     4053.7 secs

     total energy              =   -2217.30976237 Ry
     estimated scf accuracy    <       0.00001837 Ry

     total magnetization       =     0.00 Bohr mag/cell
     absolute magnetization    =     0.00 Bohr mag/cell

     iteration #  6     ecut=    90.00 Ry     beta= 0.20
     Davidson diagonalization with overlap
     ethr =  1.39E-08,  avg # of iterations =  1.7

     total cpu time spent up to now is     4084.6 secs

     total energy              =   -2217.30975762 Ry
     estimated scf accuracy    <       0.00036451 Ry

     total magnetization       =     0.00 Bohr mag/cell
     absolute magnetization    =     0.00 Bohr mag/cell

     iteration #  7     ecut=    90.00 Ry     beta= 0.20
     Davidson diagonalization with overlap
     ethr =  1.39E-08,  avg # of iterations =  2.0

     total cpu time spent up to now is     4118.2 secs

     total energy              =   -2217.30976328 Ry
     estimated scf accuracy    <       0.00000385 Ry

     total magnetization       =     0.00 Bohr mag/cell
     absolute magnetization    =     0.01 Bohr mag/cell

     iteration #  8     ecut=    90.00 Ry     beta= 0.20
     Davidson diagonalization with overlap
     ethr =  2.91E-09,  avg # of iterations =  1.1

     total cpu time spent up to now is     4147.2 secs

     total energy              =   -2217.30976341 Ry
     estimated scf accuracy    <       0.00000206 Ry

     total magnetization       =     0.00 Bohr mag/cell
     absolute magnetization    =     0.01 Bohr mag/cell

     iteration #  9     ecut=    90.00 Ry     beta= 0.20
     Davidson diagonalization with overlap
     ethr =  1.56E-09,  avg # of iterations =  1.1

     total cpu time spent up to now is     4176.1 secs

     total energy              =   -2217.30976351 Ry
     estimated scf accuracy    <       0.00000290 Ry

     total magnetization       =     0.00 Bohr mag/cell
     absolute magnetization    =     0.01 Bohr mag/cell

     iteration # 10     ecut=    90.00 Ry     beta= 0.20
     Davidson diagonalization with overlap
     ethr =  1.56E-09,  avg # of iterations =  1.0

     total cpu time spent up to now is     4204.8 secs

     total energy              =   -2217.30976358 Ry
     estimated scf accuracy    <       0.00000063 Ry

     total magnetization       =     0.00 Bohr mag/cell
     absolute magnetization    =     0.01 Bohr mag/cell

     iteration # 11     ecut=    90.00 Ry     beta= 0.20
     Davidson diagonalization with overlap
     ethr =  4.77E-10,  avg # of iterations =  2.0

     total cpu time spent up to now is     4239.1 secs

     total energy              =   -2217.30976364 Ry
     estimated scf accuracy    <       0.00000048 Ry

     total magnetization       =     0.00 Bohr mag/cell
     absolute magnetization    =     0.01 Bohr mag/cell

     iteration # 12     ecut=    90.00 Ry     beta= 0.20
     Davidson diagonalization with overlap
     ethr =  3.65E-10,  avg # of iterations =  1.0

     total cpu time spent up to now is     4267.8 secs

     total energy              =   -2217.30976362 Ry
     estimated scf accuracy    <       0.00000039 Ry

     total magnetization       =     0.00 Bohr mag/cell
     absolute magnetization    =     0.01 Bohr mag/cell

     iteration # 13     ecut=    90.00 Ry     beta= 0.20
     Davidson diagonalization with overlap
     ethr =  2.98E-10,  avg # of iterations =  1.5

     total cpu time spent up to now is     4298.0 secs

     total energy              =   -2217.30976349 Ry
     estimated scf accuracy    <       0.00000952 Ry

     total magnetization       =     0.00 Bohr mag/cell
     absolute magnetization    =     0.01 Bohr mag/cell

     iteration # 14     ecut=    90.00 Ry     beta= 0.20
     Davidson diagonalization with overlap
     ethr =  2.98E-10,  avg # of iterations =  2.0

     total cpu time spent up to now is     4331.2 secs

     total energy              =   -2217.30976364 Ry
     estimated scf accuracy    <       0.00000098 Ry

     total magnetization       =     0.00 Bohr mag/cell
     absolute magnetization    =     0.00 Bohr mag/cell

     iteration # 15     ecut=    90.00 Ry     beta= 0.20
     Davidson diagonalization with overlap
     ethr =  2.98E-10,  avg # of iterations =  1.0

     total cpu time spent up to now is     4360.0 secs

     total energy              =   -2217.30976357 Ry
     estimated scf accuracy    <       0.00000047 Ry

     total magnetization       =    -0.00 Bohr mag/cell
     absolute magnetization    =     0.00 Bohr mag/cell

     iteration # 16     ecut=    90.00 Ry     beta= 0.20
     Davidson diagonalization with overlap
     ethr =  2.98E-10,  avg # of iterations =  2.0

     total cpu time spent up to now is     4393.0 secs

     total energy              =   -2217.30976358 Ry
     estimated scf accuracy    <       0.00000012 Ry

     total magnetization       =    -0.00 Bohr mag/cell
     absolute magnetization    =     0.00 Bohr mag/cell

     iteration # 17     ecut=    90.00 Ry     beta= 0.20
     Davidson diagonalization with overlap
     ethr =  9.32E-11,  avg # of iterations =  2.0

     total cpu time spent up to now is     4427.9 secs

     total energy              =   -2217.30976357 Ry
     estimated scf accuracy    <       0.00000168 Ry

     total magnetization       =    -0.00 Bohr mag/cell
     absolute magnetization    =     0.00 Bohr mag/cell

     iteration # 18     ecut=    90.00 Ry     beta= 0.20
     Davidson diagonalization with overlap
     ethr =  9.32E-11,  avg # of iterations =  1.0

     total cpu time spent up to now is     4456.5 secs

     total energy              =   -2217.30976358 Ry
     estimated scf accuracy    <       0.00000028 Ry

     total magnetization       =    -0.00 Bohr mag/cell
     absolute magnetization    =     0.00 Bohr mag/cell

     iteration # 19     ecut=    90.00 Ry     beta= 0.20
     Davidson diagonalization with overlap
     ethr =  9.32E-11,  avg # of iterations =  1.5

     total cpu time spent up to now is     4486.9 secs

     total energy              =   -2217.30976354 Ry
     estimated scf accuracy    <       0.00000430 Ry

     total magnetization       =    -0.00 Bohr mag/cell
     absolute magnetization    =     0.00 Bohr mag/cell

     iteration # 20     ecut=    90.00 Ry     beta= 0.20
     Davidson diagonalization with overlap
     ethr =  9.32E-11,  avg # of iterations =  1.3

     total cpu time spent up to now is     4516.7 secs

     total energy              =   -2217.30976359 Ry
     estimated scf accuracy    <       0.00000058 Ry

     total magnetization       =    -0.00 Bohr mag/cell
     absolute magnetization    =     0.00 Bohr mag/cell

     iteration # 21     ecut=    90.00 Ry     beta= 0.20
     Davidson diagonalization with overlap
     ethr =  9.32E-11,  avg # of iterations =  1.0

     Magnetic moment per site:
     atom:    1    charge:   16.3751    magn:   -0.0000    constr:    0.0000
     atom:    2    charge:   12.9103    magn:   -0.0005    constr:    0.0000
     atom:    3    charge:   16.3750    magn:    0.0001    constr:    0.0000
     atom:    4    charge:   12.9103    magn:   -0.0001    constr:    0.0000
     atom:    5    charge:   16.3751    magn:   -0.0002    constr:    0.0000
     atom:    6    charge:   12.9102    magn:   -0.0002    constr:    0.0000
     atom:    7    charge:   16.3751    magn:   -0.0001    constr:    0.0000
     atom:    8    charge:   12.9102    magn:   -0.0003    constr:    0.0000

     total cpu time spent up to now is     4545.3 secs

     End of self-consistent calculation

     Number of k-points >= 100: set verbosity='high' to print the bands.

     the Fermi energy is    16.2423 ev

!    total energy              =   -2217.30976361 Ry
     estimated scf accuracy    <          8.6E-09 Ry
     smearing contrib. (-TS)   =      -0.01992947 Ry
     internal energy E=F+TS    =   -2217.28983414 Ry

     The total energy is F=E-TS. E is the sum of the following terms:
     one-electron contribution =   -1244.25316747 Ry
     hartree contribution      =     692.87168808 Ry
     xc contribution           =    -247.92176624 Ry
     ewald contribution        =   -1417.98658850 Ry

     total magnetization       =    -0.00 Bohr mag/cell
     absolute magnetization    =     0.00 Bohr mag/cell

     convergence has been achieved in  21 iterations

     Forces acting on atoms (cartesian axes, Ry/au):

     atom    1 type  1   force =     0.00006341   -0.00024126    0.00044883
     atom    2 type  2   force =     0.00036737    0.00038827   -0.00073049
     atom    3 type  1   force =     0.00005352   -0.00024252    0.00045162
     atom    4 type  2   force =     0.00036558    0.00038746   -0.00072853
     atom    5 type  1   force =     0.00015106   -0.00004386    0.00009862
     atom    6 type  2   force =    -0.00056367   -0.00010049    0.00018059
     atom    7 type  1   force =     0.00012606   -0.00004625    0.00009838
     atom    8 type  2   force =    -0.00056332   -0.00010136    0.00018098

     Total force =     0.001716     Total SCF correction =     0.000361
     SCF correction compared to forces is large: reduce conv_thr to get better values


     Computing stress (Cartesian axis) and pressure

          total   stress  (Ry/bohr**3)                   (kbar)     P=        1.50
   0.00001013   0.00000776   0.00000002            1.49        1.14        0.00
   0.00000776   0.00000992   0.00000012            1.14        1.46        0.02
   0.00000002   0.00000012   0.00001056            0.00        0.02        1.55


     BFGS Geometry Optimization
     Energy error            =      0.0E+00
     Gradient error          =      7.3E-04

     number of scf cycles    =   1
     number of bfgs steps    =   0

     energy   new            =   -2217.3097636093 Ry

     new trust radius        =       0.0009051653 bohr
     new conv_thr            =       0.0000000100 Ry


ATOMIC_POSITIONS (angstrom)
Ni            0.0112771322        2.3118354203        0.0065177978
Mn            2.3179613497       -0.0055552611        2.3234141832
Ni           -0.0003173521       -0.0060655966        2.3244192184
Mn            2.3295498993        2.3123443014        0.0055152287
Ni            2.3131798540       -0.0005862990       -0.0037010975
Mn            0.0104341299        2.3119509533        2.3241865160
Ni            2.3247561828        2.3173126730        2.3141988718
Mn           -0.0011551876       -0.0059495147        0.0062867444



     Writing output data file ./pwscf.save/
     NEW-OLD atomic charge density approx. for the potential

     Check: negative core charge=   -0.000015
     Generating pointlists ...

     total cpu time spent up to now is     4581.0 secs

     Self-consistent Calculation

     iteration #  1     ecut=    90.00 Ry     beta= 0.20
     Davidson diagonalization with overlap
     ethr =  1.00E-06,  avg # of iterations =  2.2

     Threshold (ethr) on eigenvalues was too large:
     Diagonalizing with lowered threshold

     Davidson diagonalization with overlap
     ethr =  7.22E-10,  avg # of iterations =  5.1

     total cpu time spent up to now is     4674.1 secs

     total energy              =   -2217.30976650 Ry
     estimated scf accuracy    <       0.00000071 Ry

     total magnetization       =    -0.00 Bohr mag/cell
     absolute magnetization    =     0.00 Bohr mag/cell

     iteration #  2     ecut=    90.00 Ry     beta= 0.20
     Davidson diagonalization with overlap
     ethr =  5.40E-10,  avg # of iterations =  2.1

     total cpu time spent up to now is     4707.1 secs

     total energy              =   -2217.30976619 Ry
     estimated scf accuracy    <       0.00002429 Ry

     total magnetization       =    -0.01 Bohr mag/cell
     absolute magnetization    =     0.01 Bohr mag/cell

     iteration #  3     ecut=    90.00 Ry     beta= 0.20
     Davidson diagonalization with overlap
     ethr =  5.40E-10,  avg # of iterations =  1.1

     total cpu time spent up to now is     4736.0 secs

     total energy              =   -2217.30976654 Ry
     estimated scf accuracy    <       0.00000115 Ry

     total magnetization       =    -0.01 Bohr mag/cell
     absolute magnetization    =     0.01 Bohr mag/cell

     iteration #  4     ecut=    90.00 Ry     beta= 0.20
     Davidson diagonalization with overlap
     ethr =  5.40E-10,  avg # of iterations =  1.0

     total cpu time spent up to now is     4764.6 secs

     total energy              =   -2217.30976659 Ry
     estimated scf accuracy    <       0.00000097 Ry

     total magnetization       =    -0.01 Bohr mag/cell
     absolute magnetization    =     0.01 Bohr mag/cell

     iteration #  5     ecut=    90.00 Ry     beta= 0.20
     Davidson diagonalization with overlap
     ethr =  5.40E-10,  avg # of iterations =  1.0

     total cpu time spent up to now is     4793.1 secs

     total energy              =   -2217.30976655 Ry
     estimated scf accuracy    <       0.00000024 Ry

     total magnetization       =    -0.01 Bohr mag/cell
     absolute magnetization    =     0.01 Bohr mag/cell

     iteration #  6     ecut=    90.00 Ry     beta= 0.20
     Davidson diagonalization with overlap
     ethr =  1.83E-10,  avg # of iterations =  1.0

     total cpu time spent up to now is     4821.8 secs

     total energy              =   -2217.30976653 Ry
     estimated scf accuracy    <       0.00000222 Ry

     total magnetization       =    -0.00 Bohr mag/cell
     absolute magnetization    =     0.01 Bohr mag/cell

     iteration #  7     ecut=    90.00 Ry     beta= 0.20
     Davidson diagonalization with overlap
     ethr =  1.83E-10,  avg # of iterations =  1.0

     total cpu time spent up to now is     4850.3 secs

     total energy              =   -2217.30976654 Ry
     estimated scf accuracy    <       0.00000011 Ry

     total magnetization       =    -0.00 Bohr mag/cell
[...]

     total magnetization       =     0.00 Bohr mag/cell
     absolute magnetization    =     0.00 Bohr mag/cell

     iteration # 52     ecut=    90.00 Ry     beta= 0.20
     Davidson diagonalization with overlap
     ethr =  2.06E-12,  avg # of iterations =  1.0

     total cpu time spent up to now is    11567.7 secs

     total energy              =   -2217.30984570 Ry
     estimated scf accuracy    <       0.00000001 Ry

     total magnetization       =     0.00 Bohr mag/cell
     absolute magnetization    =     0.00 Bohr mag/cell

     iteration # 53     ecut=    90.00 Ry     beta= 0.20
     Davidson diagonalization with overlap
     ethr =  2.06E-12,  avg # of iterations =  1.0

     total cpu time spent up to now is    11596.3 secs

     total energy              =   -2217.30984570 Ry
     estimated scf accuracy    <          5.5E-09 Ry

     total magnetization       =    -0.00 Bohr mag/cell
     absolute magnetization    =     0.00 Bohr mag/cell

     iteration # 54     ecut=    90.00 Ry     beta= 0.20
     Davidson diagonalization with overlap
     ethr =  2.06E-12,  avg # of iterations =  1.0

     total cpu time spent up to now is    11624.9 secs

     total energy              =   -2217.30984570 Ry
     estimated scf accuracy    <          5.2E-09 Ry

     total magnetization       =    -0.00 Bohr mag/cell
     absolute magnetization    =     0.00 Bohr mag/cell

     iteration # 55     ecut=    90.00 Ry     beta= 0.20
     Davidson diagonalization with overlap
     ethr =  2.06E-12,  avg # of iterations =  1.0

     total cpu time spent up to now is    11653.5 secs

     total energy              =   -2217.30984570 Ry
     estimated scf accuracy    <          7.4E-09 Ry

     total magnetization       =     0.00 Bohr mag/cell
     absolute magnetization    =     0.00 Bohr mag/cell

     iteration # 56     ecut=    90.00 Ry     beta= 0.20
     Davidson diagonalization with overlap
     ethr =  2.06E-12,  avg # of iterations =  1.0

     total cpu time spent up to now is    11682.2 secs

     total energy              =   -2217.30984570 Ry
     estimated scf accuracy    <       0.00000001 Ry

     total magnetization       =     0.00 Bohr mag/cell
     absolute magnetization    =     0.00 Bohr mag/cell

     iteration # 57     ecut=    90.00 Ry     beta= 0.20
     Davidson diagonalization with overlap
     ethr =  2.06E-12,  avg # of iterations =  1.3

     total cpu time spent up to now is    11711.8 secs

     total energy              =   -2217.30984570 Ry
     estimated scf accuracy    <       0.00000003 Ry

     total magnetization       =     0.00 Bohr mag/cell
     absolute magnetization    =     0.00 Bohr mag/cell

     iteration # 58     ecut=    90.00 Ry     beta= 0.20
     Davidson diagonalization with overlap
     ethr =  2.06E-12,  avg # of iterations =  1.0

     total cpu time spent up to now is    11740.4 secs

     total energy              =   -2217.30984570 Ry
     estimated scf accuracy    <          9.4E-09 Ry

     total magnetization       =     0.00 Bohr mag/cell
     absolute magnetization    =     0.00 Bohr mag/cell

     iteration # 59     ecut=    90.00 Ry     beta= 0.20
     Davidson diagonalization with overlap
     ethr =  2.06E-12,  avg # of iterations =  1.0

     total cpu time spent up to now is    11769.0 secs

     total energy              =   -2217.30984570 Ry
     estimated scf accuracy    <          7.8E-09 Ry

     total magnetization       =     0.00 Bohr mag/cell
     absolute magnetization    =     0.00 Bohr mag/cell

     iteration # 60     ecut=    90.00 Ry     beta= 0.20
     Davidson diagonalization with overlap
     ethr =  2.06E-12,  avg # of iterations =  1.0

     total cpu time spent up to now is    11797.6 secs

     total energy              =   -2217.30984570 Ry
     estimated scf accuracy    <          7.5E-09 Ry

     total magnetization       =     0.00 Bohr mag/cell
     absolute magnetization    =     0.00 Bohr mag/cell

     iteration # 61     ecut=    90.00 Ry     beta= 0.20
     Davidson diagonalization with overlap
     ethr =  2.06E-12,  avg # of iterations =  1.1

     total cpu time spent up to now is    11826.6 secs

     total energy              =   -2217.30984570 Ry
     estimated scf accuracy    <       0.00000002 Ry

     total magnetization       =     0.00 Bohr mag/cell
     absolute magnetization    =     0.00 Bohr mag/cell

     iteration # 62     ecut=    90.00 Ry     beta= 0.20
     Davidson diagonalization with overlap
     ethr =  2.06E-12,  avg # of iterations =  1.1

     total cpu time spent up to now is    11855.4 secs

     total energy              =   -2217.30984570 Ry
     estimated scf accuracy    <          7.6E-09 Ry

     total magnetization       =     0.00 Bohr mag/cell
     absolute magnetization    =     0.00 Bohr mag/cell

     iteration # 63     ecut=    90.00 Ry     beta= 0.20
     Davidson diagonalization with overlap
     ethr =  2.06E-12,  avg # of iterations =  1.1

     total cpu time spent up to now is    11884.3 secs

     total energy              =   -2217.30984570 Ry
     estimated scf accuracy    <          7.6E-09 Ry

     total magnetization       =     0.00 Bohr mag/cell
     absolute magnetization    =     0.00 Bohr mag/cell

     iteration # 64     ecut=    90.00 Ry     beta= 0.20
     Davidson diagonalization with overlap
     ethr =  2.06E-12,  avg # of iterations =  1.1

     total cpu time spent up to now is    11913.2 secs

     total energy              =   -2217.30984570 Ry
     estimated scf accuracy    <          5.9E-09 Ry

     total magnetization       =     0.00 Bohr mag/cell
     absolute magnetization    =     0.00 Bohr mag/cell

     iteration # 65     ecut=    90.00 Ry     beta= 0.20
     Davidson diagonalization with overlap
     ethr =  2.06E-12,  avg # of iterations =  1.0

     total cpu time spent up to now is    11941.9 secs

     total energy              =   -2217.30984570 Ry
     estimated scf accuracy    <          4.0E-09 Ry

     total magnetization       =     0.00 Bohr mag/cell
     absolute magnetization    =     0.00 Bohr mag/cell

     iteration # 66     ecut=    90.00 Ry     beta= 0.20
     Davidson diagonalization with overlap
     ethr =  2.06E-12,  avg # of iterations =  1.0

     total cpu time spent up to now is    11970.5 secs

     total energy              =   -2217.30984570 Ry
     estimated scf accuracy    <          2.8E-09 Ry

     total magnetization       =     0.00 Bohr mag/cell
     absolute magnetization    =     0.00 Bohr mag/cell

     iteration # 67     ecut=    90.00 Ry     beta= 0.20
     Davidson diagonalization with overlap
     ethr =  2.06E-12,  avg # of iterations =  1.0

     total cpu time spent up to now is    11999.1 secs

     total energy              =   -2217.30984570 Ry
     estimated scf accuracy    <          2.9E-09 Ry

     total magnetization       =     0.00 Bohr mag/cell
     absolute magnetization    =     0.00 Bohr mag/cell

     iteration # 68     ecut=    90.00 Ry     beta= 0.20
     Davidson diagonalization with overlap
     ethr =  2.06E-12,  avg # of iterations =  1.0

     total cpu time spent up to now is    12027.7 secs

     total energy              =   -2217.30984570 Ry
     estimated scf accuracy    <          5.2E-09 Ry

     total magnetization       =     0.00 Bohr mag/cell
     absolute magnetization    =     0.00 Bohr mag/cell

     iteration # 69     ecut=    90.00 Ry     beta= 0.20
     Davidson diagonalization with overlap
     ethr =  2.06E-12,  avg # of iterations =  1.2

     total cpu time spent up to now is    12057.0 secs

     total energy              =   -2217.30984570 Ry
     estimated scf accuracy    <          3.7E-09 Ry

     total magnetization       =     0.00 Bohr mag/cell
     absolute magnetization    =     0.00 Bohr mag/cell

     iteration # 70     ecut=    90.00 Ry     beta= 0.20
     Davidson diagonalization with overlap
     ethr =  2.06E-12,  avg # of iterations =  1.0

     total cpu time spent up to now is    12085.6 secs

     total energy              =   -2217.30984570 Ry
     estimated scf accuracy    <          4.1E-09 Ry

     total magnetization       =     0.00 Bohr mag/cell
     absolute magnetization    =     0.00 Bohr mag/cell

     iteration # 71     ecut=    90.00 Ry     beta= 0.20
     Davidson diagonalization with overlap
     ethr =  2.06E-12,  avg # of iterations =  1.0

     total cpu time spent up to now is    12114.1 secs

     total energy              =   -2217.30984570 Ry
     estimated scf accuracy    <          4.5E-09 Ry

     total magnetization       =     0.00 Bohr mag/cell
     absolute magnetization    =     0.00 Bohr mag/cell

     iteration # 72     ecut=    90.00 Ry     beta= 0.20
     Davidson diagonalization with overlap
     ethr =  2.06E-12,  avg # of iterations =  1.0

     total cpu time spent up to now is    12142.8 secs

     total energy              =   -2217.30984570 Ry
     estimated scf accuracy    <          6.1E-09 Ry

     total magnetization       =     0.00 Bohr mag/cell
     absolute magnetization    =     0.00 Bohr mag/cell

     iteration # 73     ecut=    90.00 Ry     beta= 0.20
     Davidson diagonalization with overlap
     ethr =  2.06E-12,  avg # of iterations =  1.0

     total cpu time spent up to now is    12171.4 secs

     total energy              =   -2217.30984570 Ry
     estimated scf accuracy    <          3.9E-09 Ry

     total magnetization       =     0.00 Bohr mag/cell
     absolute magnetization    =     0.00 Bohr mag/cell

     iteration # 74     ecut=    90.00 Ry     beta= 0.20
     Davidson diagonalization with overlap
     ethr =  2.06E-12,  avg # of iterations =  1.0

     total cpu time spent up to now is    12200.0 secs

     total energy              =   -2217.30984570 Ry
     estimated scf accuracy    <          3.4E-09 Ry

     total magnetization       =     0.00 Bohr mag/cell
     absolute magnetization    =     0.00 Bohr mag/cell

     iteration # 75     ecut=    90.00 Ry     beta= 0.20
     Davidson diagonalization with overlap
     ethr =  2.06E-12,  avg # of iterations =  1.0

     total cpu time spent up to now is    12228.5 secs

     total energy              =   -2217.30984570 Ry
     estimated scf accuracy    <          2.6E-09 Ry

     total magnetization       =     0.00 Bohr mag/cell
     absolute magnetization    =     0.00 Bohr mag/cell

     iteration # 76     ecut=    90.00 Ry     beta= 0.20
     Davidson diagonalization with overlap
     ethr =  1.96E-12,  avg # of iterations =  1.0

     total cpu time spent up to now is    12257.1 secs

     total energy              =   -2217.30984570 Ry
     estimated scf accuracy    <          3.4E-09 Ry

     total magnetization       =     0.00 Bohr mag/cell
     absolute magnetization    =     0.00 Bohr mag/cell

     iteration # 77     ecut=    90.00 Ry     beta= 0.20
     Davidson diagonalization with overlap
     ethr =  1.96E-12,  avg # of iterations =  1.0

     total cpu time spent up to now is    12285.8 secs

     total energy              =   -2217.30984570 Ry
     estimated scf accuracy    <          4.8E-09 Ry

     total magnetization       =     0.00 Bohr mag/cell
     absolute magnetization    =     0.00 Bohr mag/cell

     iteration # 78     ecut=    90.00 Ry     beta= 0.20
     Davidson diagonalization with overlap
     ethr =  1.96E-12,  avg # of iterations =  1.1

     total cpu time spent up to now is    12314.6 secs

     total energy              =   -2217.30984570 Ry
     estimated scf accuracy    <       0.00000002 Ry

     total magnetization       =     0.00 Bohr mag/cell
     absolute magnetization    =     0.00 Bohr mag/cell

     iteration # 79     ecut=    90.00 Ry     beta= 0.20
     Davidson diagonalization with overlap
     ethr =  1.96E-12,  avg # of iterations =  1.0

     total cpu time spent up to now is    12343.2 secs

     total energy              =   -2217.30984570 Ry
     estimated scf accuracy    <          2.8E-09 Ry

     total magnetization       =     0.00 Bohr mag/cell
     absolute magnetization    =     0.00 Bohr mag/cell

     iteration # 80     ecut=    90.00 Ry     beta= 0.20
     Davidson diagonalization with overlap
     ethr =  1.96E-12,  avg # of iterations =  1.4

     total cpu time spent up to now is    12373.1 secs

     total energy              =   -2217.30984570 Ry
     estimated scf accuracy    <          4.2E-09 Ry

     total magnetization       =     0.00 Bohr mag/cell
     absolute magnetization    =     0.00 Bohr mag/cell

     iteration # 81     ecut=    90.00 Ry     beta= 0.20
     Davidson diagonalization with overlap
     ethr =  1.96E-12,  avg # of iterations =  1.1

     total cpu time spent up to now is    12402.1 secs

     total energy              =   -2217.30984570 Ry
     estimated scf accuracy    <          1.7E-09 Ry

     total magnetization       =     0.00 Bohr mag/cell
     absolute magnetization    =     0.00 Bohr mag/cell

     iteration # 82     ecut=    90.00 Ry     beta= 0.20
     Davidson diagonalization with overlap
     ethr =  1.26E-12,  avg # of iterations =  1.2

     total cpu time spent up to now is    12431.4 secs

     total energy              =   -2217.30984570 Ry
     estimated scf accuracy    <          1.7E-09 Ry

     total magnetization       =     0.00 Bohr mag/cell
     absolute magnetization    =     0.00 Bohr mag/cell

     iteration # 83     ecut=    90.00 Ry     beta= 0.20
     Davidson diagonalization with overlap
     ethr =  1.26E-12,  avg # of iterations =  1.0

     total cpu time spent up to now is    12460.2 secs

     total energy              =   -2217.30984570 Ry
     estimated scf accuracy    <          1.6E-09 Ry

     total magnetization       =     0.00 Bohr mag/cell
     absolute magnetization    =     0.00 Bohr mag/cell

     iteration # 84     ecut=    90.00 Ry     beta= 0.20
     Davidson diagonalization with overlap
     ethr =  1.23E-12,  avg # of iterations =  1.0

     total cpu time spent up to now is    12489.1 secs

     total energy              =   -2217.30984570 Ry
     estimated scf accuracy    <       0.00000001 Ry

     total magnetization       =     0.00 Bohr mag/cell
     absolute magnetization    =     0.00 Bohr mag/cell

     iteration # 85     ecut=    90.00 Ry     beta= 0.20
     Davidson diagonalization with overlap
     ethr =  1.23E-12,  avg # of iterations =  1.0

     total cpu time spent up to now is    12517.8 secs

     total energy              =   -2217.30984570 Ry
     estimated scf accuracy    <          1.9E-09 Ry

     total magnetization       =     0.00 Bohr mag/cell
     absolute magnetization    =     0.00 Bohr mag/cell

     iteration # 86     ecut=    90.00 Ry     beta= 0.20
     Davidson diagonalization with overlap
     ethr =  1.23E-12,  avg # of iterations =  1.0

     total cpu time spent up to now is    12546.5 secs

     total energy              =   -2217.30984570 Ry
     estimated scf accuracy    <          4.5E-09 Ry

     total magnetization       =     0.00 Bohr mag/cell
     absolute magnetization    =     0.00 Bohr mag/cell

     iteration # 87     ecut=    90.00 Ry     beta= 0.20
     Davidson diagonalization with overlap
     ethr =  1.23E-12,  avg # of iterations =  1.0

     total cpu time spent up to now is    12575.2 secs

     total energy              =   -2217.30984570 Ry
     estimated scf accuracy    <          3.0E-09 Ry

     total magnetization       =     0.00 Bohr mag/cell
     absolute magnetization    =     0.00 Bohr mag/cell

     iteration # 88     ecut=    90.00 Ry     beta= 0.20
     Davidson diagonalization with overlap
     ethr =  1.23E-12,  avg # of iterations =  1.0

     total cpu time spent up to now is    12604.0 secs

     total energy              =   -2217.30984570 Ry
     estimated scf accuracy    <       0.00000001 Ry

     total magnetization       =     0.00 Bohr mag/cell
     absolute magnetization    =     0.00 Bohr mag/cell

     iteration # 89     ecut=    90.00 Ry     beta= 0.20
     Davidson diagonalization with overlap
     ethr =  1.23E-12,  avg # of iterations =  1.0

     total cpu time spent up to now is    12632.7 secs

     total energy              =   -2217.30984570 Ry
     estimated scf accuracy    <          1.2E-09 Ry

     total magnetization       =     0.00 Bohr mag/cell
     absolute magnetization    =     0.00 Bohr mag/cell

     iteration # 90     ecut=    90.00 Ry     beta= 0.20
     Davidson diagonalization with overlap
     ethr =  9.41E-13,  avg # of iterations =  1.4

     total cpu time spent up to now is    12662.6 secs

     total energy              =   -2217.30984570 Ry
     estimated scf accuracy    <          1.7E-09 Ry

     total magnetization       =     0.00 Bohr mag/cell
     absolute magnetization    =     0.00 Bohr mag/cell

     iteration # 91     ecut=    90.00 Ry     beta= 0.20
     Davidson diagonalization with overlap
     ethr =  9.41E-13,  avg # of iterations =  1.0

     total cpu time spent up to now is    12691.3 secs

     total energy              =   -2217.30984570 Ry
     estimated scf accuracy    <          6.5E-09 Ry

     total magnetization       =     0.00 Bohr mag/cell
     absolute magnetization    =     0.00 Bohr mag/cell

     iteration # 92     ecut=    90.00 Ry     beta= 0.20
     Davidson diagonalization with overlap
     ethr =  9.41E-13,  avg # of iterations =  1.0

     total cpu time spent up to now is    12720.0 secs

     total energy              =   -2217.30984570 Ry
     estimated scf accuracy    <          3.3E-09 Ry

     total magnetization       =     0.00 Bohr mag/cell
     absolute magnetization    =     0.00 Bohr mag/cell

     iteration # 93     ecut=    90.00 Ry     beta= 0.20
     Davidson diagonalization with overlap
     ethr =  9.41E-13,  avg # of iterations =  1.0

     total cpu time spent up to now is    12748.6 secs

     total energy              =   -2217.30984570 Ry
     estimated scf accuracy    <          2.5E-09 Ry

     total magnetization       =     0.00 Bohr mag/cell
     absolute magnetization    =     0.00 Bohr mag/cell

     iteration # 94     ecut=    90.00 Ry     beta= 0.20
     Davidson diagonalization with overlap
     ethr =  9.41E-13,  avg # of iterations =  1.0

     total cpu time spent up to now is    12777.3 secs

     total energy              =   -2217.30984570 Ry
     estimated scf accuracy    <          3.2E-09 Ry

     total magnetization       =     0.00 Bohr mag/cell
     absolute magnetization    =     0.00 Bohr mag/cell

     iteration # 95     ecut=    90.00 Ry     beta= 0.20
     Davidson diagonalization with overlap
     ethr =  9.41E-13,  avg # of iterations =  1.0

     total cpu time spent up to now is    12805.8 secs

     total energy              =   -2217.30984570 Ry
     estimated scf accuracy    <          3.7E-09 Ry

     total magnetization       =     0.00 Bohr mag/cell
     absolute magnetization    =     0.00 Bohr mag/cell

     iteration # 96     ecut=    90.00 Ry     beta= 0.20
     Davidson diagonalization with overlap
     ethr =  9.41E-13,  avg # of iterations =  1.0

     total cpu time spent up to now is    12834.4 secs

     total energy              =   -2217.30984570 Ry
     estimated scf accuracy    <          4.5E-09 Ry

     total magnetization       =     0.00 Bohr mag/cell
     absolute magnetization    =     0.00 Bohr mag/cell

     iteration # 97     ecut=    90.00 Ry     beta= 0.20
     Davidson diagonalization with overlap
     ethr =  9.41E-13,  avg # of iterations =  1.0

     total cpu time spent up to now is    12863.0 secs

     total energy              =   -2217.30984570 Ry
     estimated scf accuracy    <          4.7E-09 Ry

     total magnetization       =     0.00 Bohr mag/cell
     absolute magnetization    =     0.00 Bohr mag/cell

     iteration # 98     ecut=    90.00 Ry     beta= 0.20
     Davidson diagonalization with overlap
     ethr =  9.41E-13,  avg # of iterations =  1.0
