 # File generated with Atomsk by kevin on 2022-03-20 17:48:12
 
           8  atoms
           2  atom types
 
      0.000000000000       4.635800000000  xlo xhi
      0.000000000000       4.635800000000  ylo yhi
      0.000000000000       4.635800000000  zlo zhi
      0.000000000000       0.023179000000       0.000000000000  xy xz yz
 
Masses
 
            1   0.00000000              # XX
            2   0.00000000              # XX
 
Atoms # atomic
 
         1    4       -0.001482529744      -0.008657126098       0.003470801839
         2    5        2.321259315319       2.324223450190       2.308584580221
         3    4        0.010106970256       2.309242873902       2.321370801839
         4    5        2.309669815319       0.006323450190      -0.009315419779
         5    4        2.316417470256       2.309242873902       0.003470801839
         6    5        0.010106970256      -0.008657126098       2.321370801839
         7    4        2.328006970256      -0.008657126098       2.321370801839
         8    5       -0.001482529744       2.309242873902       0.003470801839
