
     Program PWSCF v.6.7MaX starts on 22Mar2022 at 10:50: 3 

     This program is part of the open-source Quantum ESPRESSO suite
     for quantum simulation of materials; please cite
         "P. Giannozzi et al., J. Phys.:Condens. Matter 21 395502 (2009);
         "P. Giannozzi et al., J. Phys.:Condens. Matter 29 465901 (2017);
          URL http://www.quantum-espresso.org", 
     in publications or presentations arising from this work. More details at
     http://www.quantum-espresso.org/quote

     Parallel version (MPI), running on    16 processors

     MPI processes distributed on     1 nodes
     R & G space division:  proc/nbgrp/npool/nimage =      16
     Reading input from /home/kevin/QE_CoCrFeMnNi/CoCrFeMnNi/Opt/binary/Opt-B1-MnNi/Mix/elastic/Chg_1-B1-MnNi.in

     Current dimensions of program PWSCF are:
     Max number of different atomic species (ntypx) = 10
     Max number of k-points (npk) =  40000
     Max angular momentum in pseudopotentials (lmaxx) =  3

     Subspace diagonalization in iterative solution of the eigenvalue problem:
     a serial algorithm will be used

     Found symmetry operation: I + (  0.0000  0.5000  0.5000)
     This is a supercell, fractional translations are disabled

     Parallelization info
     --------------------
     sticks:   dense  smooth     PW     G-vecs:    dense   smooth      PW
     Min         413     138     39                25305     4874     733
     Max         415     139     40                25307     4877     737
     Sum        6611    2217    625               404889    77997   11761



     bravais-lattice index     =            0
     lattice parameter (alat)  =       8.8042  a.u.
     unit-cell volume          =     675.6733 (a.u.)^3
     number of atoms/cell      =            8
     number of atomic types    =            2
     number of electrons       =       132.00
     number of Kohn-Sham states=           79
     kinetic-energy cutoff     =      90.0000  Ry
     charge density cutoff     =    1080.0000  Ry
     scf convergence threshold =      1.0E-08
     mixing beta               =       0.2000
     number of iterations used =            8  plain     mixing
     energy convergence thresh.=      1.0E-05
     force convergence thresh. =      1.0E-04
     Exchange-correlation=  SLA  PW   PBX  PBC
                           (   1   4   3   4   0   0   0)
     nstep                     =          100


     celldm(1)=   8.804194  celldm(2)=   0.000000  celldm(3)=   0.000000
     celldm(4)=   0.000000  celldm(5)=   0.000000  celldm(6)=   0.000000

     crystal axes: (cart. coord. in units of alat)
               a(1) = (   1.000000   0.000000   0.000000 )  
               a(2) = (   0.000000   0.995025   0.000000 )  
               a(3) = (   0.000000   0.000000   0.995025 )  

     reciprocal axes: (cart. coord. in units 2 pi/alat)
               b(1) = (  1.000000  0.000000  0.000000 )  
               b(2) = (  0.000000  1.005000  0.000000 )  
               b(3) = (  0.000000  0.000000  1.005000 )  


     PseudoPot. # 1 for Ni read from file:
     /opt/QEpot/SSSP_efficiency_pseudos/ni_pbe_v1.4.uspp.F.UPF
     MD5 check sum: 1ee80287db30b12d2bc1f57a5b5d6409
     Pseudo is Ultrasoft + core correction, Zval = 18.0
     Generated by new atomic code, or converted to UPF format
     Using radial grid of  865 points,  6 beta functions with: 
                l(1) =   0
                l(2) =   0
                l(3) =   1
                l(4) =   1
                l(5) =   2
                l(6) =   2
     Q(r) pseudized with 10 coefficients,  rinner =    0.980   0.980   0.980
                                                       0.980   0.980

     PseudoPot. # 2 for Mn read from file:
     /opt/QEpot/SSSP_efficiency_pseudos/mn_pbe_v1.5.uspp.F.UPF
     MD5 check sum: 82ef2b46521d7a7d9e736dc3972e4928
     Pseudo is Ultrasoft + core correction, Zval = 15.0
     Generated by new atomic code, or converted to UPF format
     Using radial grid of  859 points,  6 beta functions with: 
                l(1) =   0
                l(2) =   0
                l(3) =   1
                l(4) =   1
                l(5) =   2
                l(6) =   2
     Q(r) pseudized with  8 coefficients,  rinner =    0.950   0.950   0.950
                                                       0.950   0.950

     atomic species   valence    mass     pseudopotential
        Ni            18.00    58.69300     Ni( 1.00)
        Mn            15.00    54.93800     Mn( 1.00)

     Starting magnetic structure 
     atomic species   magnetization
        Ni           0.000
        Mn           0.000

     No symmetry found



   Cartesian axes

     site n.     atom                  positions (alat units)
         1           Ni  tau(   1) = (   0.0016098   0.4960635  -0.0015650  )
         2           Mn  tau(   2) = (   0.5016098  -0.0014489   0.4959475  )
         3           Ni  tau(   3) = (   0.0016098  -0.0014489   0.4959475  )
         4           Mn  tau(   4) = (   0.5016098   0.4960635  -0.0015650  )
         5           Ni  tau(   5) = (   0.4982986  -0.0014320   0.0016159  )
         6           Mn  tau(   6) = (   0.0016098   0.4960635   0.4959475  )
         7           Ni  tau(   7) = (   0.4982986   0.4960804   0.4991284  )
         8           Mn  tau(   8) = (   0.0016098  -0.0014489  -0.0015650  )

     number of k points=   112  Gaussian smearing, width (Ry)=  0.0100

     Number of k-points >= 100: set verbosity='high' to print them.

     Dense  grid:   404889 G-vectors     FFT dimensions: (  96,  96,  96)

     Smooth grid:    77997 G-vectors     FFT dimensions: (  54,  54,  54)

     Estimated max dynamical RAM per process >     274.48 MB

     Estimated total dynamical RAM >       4.29 GB

     Check: negative core charge=   -0.000015
     Generating pointlists ...
     new r_m :   0.2039 (alat units)  1.7953 (a.u.) for type    1
     new r_m :   0.2039 (alat units)  1.7953 (a.u.) for type    2

     Initial potential from superposition of free atoms

     starting charge  121.99966, renormalised to  132.00000
     Starting wfcs are  104 randomized atomic wfcs

     total cpu time spent up to now is       17.2 secs

     Self-consistent Calculation

     iteration #  1     ecut=    90.00 Ry     beta= 0.20
     Davidson diagonalization with overlap
     ethr =  1.00E-02,  avg # of iterations =  3.1

     total cpu time spent up to now is       67.8 secs

     total energy              =   -2191.89167276 Ry
     estimated scf accuracy    <     152.34819949 Ry

     total magnetization       =    -0.00 Bohr mag/cell
     absolute magnetization    =     0.01 Bohr mag/cell

     iteration #  2     ecut=    90.00 Ry     beta= 0.20
     Davidson diagonalization with overlap
     ethr =  1.00E-02,  avg # of iterations =  4.4

     total cpu time spent up to now is      120.4 secs

     total energy              =   -2215.78007852 Ry
     estimated scf accuracy    <      64.03357524 Ry

     total magnetization       =    -0.01 Bohr mag/cell
     absolute magnetization    =     0.01 Bohr mag/cell

     iteration #  3     ecut=    90.00 Ry     beta= 0.20
     Davidson diagonalization with overlap
     ethr =  1.00E-02,  avg # of iterations =  4.1

     total cpu time spent up to now is      164.4 secs

     total energy              =   -2212.51504411 Ry
     estimated scf accuracy    <      13.36702312 Ry

     total magnetization       =    -0.01 Bohr mag/cell
     absolute magnetization    =     0.02 Bohr mag/cell

     iteration #  4     ecut=    90.00 Ry     beta= 0.20
     Davidson diagonalization with overlap
     ethr =  1.00E-02,  avg # of iterations =  4.1

     total cpu time spent up to now is      211.0 secs

     total energy              =   -2209.35902897 Ry
     estimated scf accuracy    <     120.12773958 Ry

     total magnetization       =     0.01 Bohr mag/cell
     absolute magnetization    =     0.01 Bohr mag/cell

     iteration #  5     ecut=    90.00 Ry     beta= 0.20
     Davidson diagonalization with overlap
     ethr =  1.00E-02,  avg # of iterations =  3.3

     total cpu time spent up to now is      252.0 secs

     total energy              =   -2217.25319280 Ry
     estimated scf accuracy    <       4.17044684 Ry

     total magnetization       =     0.00 Bohr mag/cell
     absolute magnetization    =     0.02 Bohr mag/cell

     iteration #  6     ecut=    90.00 Ry     beta= 0.20
     Davidson diagonalization with overlap
     ethr =  3.16E-03,  avg # of iterations =  1.1

     total cpu time spent up to now is      282.5 secs

     total energy              =   -2217.35508348 Ry
     estimated scf accuracy    <       1.31978243 Ry

     total magnetization       =    -0.00 Bohr mag/cell
     absolute magnetization    =     0.02 Bohr mag/cell

     iteration #  7     ecut=    90.00 Ry     beta= 0.20
     Davidson diagonalization with overlap
     ethr =  1.00E-03,  avg # of iterations =  1.4

     total cpu time spent up to now is      313.8 secs

     total energy              =   -2217.35402533 Ry
     estimated scf accuracy    <       1.25925067 Ry

     total magnetization       =    -0.00 Bohr mag/cell
     absolute magnetization    =     0.01 Bohr mag/cell

     iteration #  8     ecut=    90.00 Ry     beta= 0.20
     Davidson diagonalization with overlap
     ethr =  9.54E-04,  avg # of iterations =  1.0

     total cpu time spent up to now is      344.5 secs

     total energy              =   -2217.32300609 Ry
     estimated scf accuracy    <       0.95416891 Ry

     total magnetization       =    -0.00 Bohr mag/cell
     absolute magnetization    =     0.01 Bohr mag/cell

     iteration #  9     ecut=    90.00 Ry     beta= 0.20
     Davidson diagonalization with overlap
     ethr =  7.23E-04,  avg # of iterations =  1.0

     total cpu time spent up to now is      374.8 secs

     total energy              =   -2217.31797979 Ry
     estimated scf accuracy    <       0.44598881 Ry

     total magnetization       =    -0.00 Bohr mag/cell
     absolute magnetization    =     0.01 Bohr mag/cell

     iteration # 10     ecut=    90.00 Ry     beta= 0.20
     Davidson diagonalization with overlap
     ethr =  3.38E-04,  avg # of iterations =  1.0

     total cpu time spent up to now is      405.6 secs

     total energy              =   -2217.28011555 Ry
     estimated scf accuracy    <       0.27637976 Ry

     total magnetization       =    -0.01 Bohr mag/cell
     absolute magnetization    =     0.01 Bohr mag/cell

     iteration # 11     ecut=    90.00 Ry     beta= 0.20
     Davidson diagonalization with overlap
     ethr =  2.09E-04,  avg # of iterations =  1.8

     total cpu time spent up to now is      439.0 secs

     total energy              =   -2217.29494833 Ry
     estimated scf accuracy    <       0.24522399 Ry

     total magnetization       =    -0.00 Bohr mag/cell
     absolute magnetization    =     0.01 Bohr mag/cell

     iteration # 12     ecut=    90.00 Ry     beta= 0.20
     Davidson diagonalization with overlap
     ethr =  1.86E-04,  avg # of iterations =  1.0

     total cpu time spent up to now is      469.8 secs

     total energy              =   -2217.30580511 Ry
     estimated scf accuracy    <       0.02128581 Ry

     total magnetization       =    -0.00 Bohr mag/cell
     absolute magnetization    =     0.01 Bohr mag/cell

     iteration # 13     ecut=    90.00 Ry     beta= 0.20
     Davidson diagonalization with overlap
     ethr =  1.61E-05,  avg # of iterations =  3.2

     total cpu time spent up to now is      509.0 secs

     total energy              =   -2217.31590440 Ry
     estimated scf accuracy    <       0.23133476 Ry

     total magnetization       =    -0.00 Bohr mag/cell
     absolute magnetization    =     0.01 Bohr mag/cell

     iteration # 14     ecut=    90.00 Ry     beta= 0.20
     Davidson diagonalization with overlap
     ethr =  1.61E-05,  avg # of iterations =  1.0

     total cpu time spent up to now is      539.8 secs

     total energy              =   -2217.29965132 Ry
     estimated scf accuracy    <       0.23530645 Ry

     total magnetization       =    -0.01 Bohr mag/cell
     absolute magnetization    =     0.02 Bohr mag/cell

     iteration # 15     ecut=    90.00 Ry     beta= 0.20
     Davidson diagonalization with overlap
     ethr =  1.61E-05,  avg # of iterations =  2.1

     total cpu time spent up to now is      577.3 secs

     total energy              =   -2217.30991308 Ry
     estimated scf accuracy    <       0.01417420 Ry

     total magnetization       =    -0.01 Bohr mag/cell
     absolute magnetization    =     0.02 Bohr mag/cell

     iteration # 16     ecut=    90.00 Ry     beta= 0.20
     Davidson diagonalization with overlap
     ethr =  1.07E-05,  avg # of iterations =  1.1

     total cpu time spent up to now is      610.2 secs

     total energy              =   -2217.30963686 Ry
     estimated scf accuracy    <       0.01102464 Ry

     total magnetization       =    -0.01 Bohr mag/cell
     absolute magnetization    =     0.02 Bohr mag/cell

     iteration # 17     ecut=    90.00 Ry     beta= 0.20
     Davidson diagonalization with overlap
     ethr =  8.35E-06,  avg # of iterations =  1.1

     total cpu time spent up to now is      641.5 secs

     total energy              =   -2217.30904852 Ry
     estimated scf accuracy    <       0.01745548 Ry

     total magnetization       =    -0.01 Bohr mag/cell
     absolute magnetization    =     0.03 Bohr mag/cell

     iteration # 18     ecut=    90.00 Ry     beta= 0.20
     Davidson diagonalization with overlap
     ethr =  8.35E-06,  avg # of iterations =  1.0

     total cpu time spent up to now is      672.7 secs

     total energy              =   -2217.30921832 Ry
     estimated scf accuracy    <       0.01788432 Ry

     total magnetization       =    -0.01 Bohr mag/cell
     absolute magnetization    =     0.03 Bohr mag/cell

     iteration # 19     ecut=    90.00 Ry     beta= 0.20
     Davidson diagonalization with overlap
     ethr =  8.35E-06,  avg # of iterations =  1.0

     total cpu time spent up to now is      703.7 secs

     total energy              =   -2217.30959110 Ry
     estimated scf accuracy    <       0.00034992 Ry

     total magnetization       =    -0.01 Bohr mag/cell
     absolute magnetization    =     0.04 Bohr mag/cell

     iteration # 20     ecut=    90.00 Ry     beta= 0.20
     Davidson diagonalization with overlap
     ethr =  2.65E-07,  avg # of iterations =  1.2

     total cpu time spent up to now is      735.3 secs

     total energy              =   -2217.30956584 Ry
     estimated scf accuracy    <       0.00295228 Ry

     total magnetization       =    -0.02 Bohr mag/cell
     absolute magnetization    =     0.05 Bohr mag/cell

     iteration # 21     ecut=    90.00 Ry     beta= 0.20
     Davidson diagonalization with overlap
     ethr =  2.65E-07,  avg # of iterations =  1.0

     total cpu time spent up to now is      766.2 secs

     total energy              =   -2217.30960576 Ry
     estimated scf accuracy    <       0.00013066 Ry

     total magnetization       =    -0.02 Bohr mag/cell
     absolute magnetization    =     0.06 Bohr mag/cell

     iteration # 22     ecut=    90.00 Ry     beta= 0.20
     Davidson diagonalization with overlap
     ethr =  9.90E-08,  avg # of iterations =  1.1

     total cpu time spent up to now is      797.0 secs

     total energy              =   -2217.30961460 Ry
     estimated scf accuracy    <       0.00012869 Ry

     total magnetization       =    -0.02 Bohr mag/cell
     absolute magnetization    =     0.06 Bohr mag/cell

     iteration # 23     ecut=    90.00 Ry     beta= 0.20
     Davidson diagonalization with overlap
     ethr =  9.75E-08,  avg # of iterations =  1.0

     total cpu time spent up to now is      827.8 secs

     total energy              =   -2217.30961658 Ry
     estimated scf accuracy    <       0.00013813 Ry

     total magnetization       =    -0.03 Bohr mag/cell
     absolute magnetization    =     0.09 Bohr mag/cell

     iteration # 24     ecut=    90.00 Ry     beta= 0.20
     Davidson diagonalization with overlap
     ethr =  9.75E-08,  avg # of iterations =  1.0

     total cpu time spent up to now is      859.2 secs

     total energy              =   -2217.30962444 Ry
     estimated scf accuracy    <       0.00006837 Ry

     total magnetization       =    -0.03 Bohr mag/cell
     absolute magnetization    =     0.09 Bohr mag/cell

     iteration # 25     ecut=    90.00 Ry     beta= 0.20
     Davidson diagonalization with overlap
     ethr =  5.18E-08,  avg # of iterations =  1.0

     total cpu time spent up to now is      889.6 secs

     total energy              =   -2217.30961459 Ry
     estimated scf accuracy    <       0.00004970 Ry

     total magnetization       =    -0.04 Bohr mag/cell
     absolute magnetization    =     0.11 Bohr mag/cell

     iteration # 26     ecut=    90.00 Ry     beta= 0.20
     Davidson diagonalization with overlap
     ethr =  3.76E-08,  avg # of iterations =  1.0

     total cpu time spent up to now is      920.6 secs

     total energy              =   -2217.30961578 Ry
     estimated scf accuracy    <       0.00009983 Ry

     total magnetization       =    -0.03 Bohr mag/cell
     absolute magnetization    =     0.08 Bohr mag/cell

     iteration # 27     ecut=    90.00 Ry     beta= 0.20
     Davidson diagonalization with overlap
     ethr =  3.76E-08,  avg # of iterations =  1.0

     total cpu time spent up to now is      951.8 secs

     total energy              =   -2217.30961204 Ry
     estimated scf accuracy    <       0.00011544 Ry

     total magnetization       =    -0.03 Bohr mag/cell
     absolute magnetization    =     0.08 Bohr mag/cell

     iteration # 28     ecut=    90.00 Ry     beta= 0.20
     Davidson diagonalization with overlap
     ethr =  3.76E-08,  avg # of iterations =  1.0

     total cpu time spent up to now is      983.3 secs

     total energy              =   -2217.30960813 Ry
     estimated scf accuracy    <       0.00043207 Ry

     total magnetization       =    -0.03 Bohr mag/cell
     absolute magnetization    =     0.08 Bohr mag/cell

     iteration # 29     ecut=    90.00 Ry     beta= 0.20
     Davidson diagonalization with overlap
     ethr =  3.76E-08,  avg # of iterations =  1.0

     total cpu time spent up to now is     1013.8 secs

     total energy              =   -2217.30960651 Ry
     estimated scf accuracy    <       0.00013526 Ry

     total magnetization       =    -0.02 Bohr mag/cell
     absolute magnetization    =     0.06 Bohr mag/cell

     iteration # 30     ecut=    90.00 Ry     beta= 0.20
     Davidson diagonalization with overlap
     ethr =  3.76E-08,  avg # of iterations =  1.0

     total cpu time spent up to now is     1044.6 secs

     total energy              =   -2217.30960630 Ry
     estimated scf accuracy    <       0.00020289 Ry

     total magnetization       =    -0.01 Bohr mag/cell
     absolute magnetization    =     0.03 Bohr mag/cell

     iteration # 31     ecut=    90.00 Ry     beta= 0.20
     Davidson diagonalization with overlap
     ethr =  3.76E-08,  avg # of iterations =  1.0

     total cpu time spent up to now is     1075.2 secs

     total energy              =   -2217.30960754 Ry
     estimated scf accuracy    <       0.00012064 Ry

     total magnetization       =    -0.01 Bohr mag/cell
     absolute magnetization    =     0.04 Bohr mag/cell

     iteration # 32     ecut=    90.00 Ry     beta= 0.20
     Davidson diagonalization with overlap
     ethr =  3.76E-08,  avg # of iterations =  1.0

     total cpu time spent up to now is     1106.3 secs

     total energy              =   -2217.30960804 Ry
     estimated scf accuracy    <       0.00004672 Ry

     total magnetization       =    -0.00 Bohr mag/cell
     absolute magnetization    =     0.02 Bohr mag/cell

     iteration # 33     ecut=    90.00 Ry     beta= 0.20
     Davidson diagonalization with overlap
     ethr =  3.54E-08,  avg # of iterations =  1.0

     total cpu time spent up to now is     1137.4 secs

     total energy              =   -2217.30960914 Ry
     estimated scf accuracy    <       0.00002803 Ry

     total magnetization       =     0.00 Bohr mag/cell
     absolute magnetization    =     0.01 Bohr mag/cell

     iteration # 34     ecut=    90.00 Ry     beta= 0.20
     Davidson diagonalization with overlap
     ethr =  2.12E-08,  avg # of iterations =  1.0

     total cpu time spent up to now is     1168.3 secs

     total energy              =   -2217.30960872 Ry
     estimated scf accuracy    <       0.00004136 Ry

     total magnetization       =     0.01 Bohr mag/cell
     absolute magnetization    =     0.01 Bohr mag/cell

     iteration # 35     ecut=    90.00 Ry     beta= 0.20
     Davidson diagonalization with overlap
     ethr =  2.12E-08,  avg # of iterations =  1.0

     total cpu time spent up to now is     1199.0 secs

     total energy              =   -2217.30961068 Ry
     estimated scf accuracy    <       0.00000311 Ry

     total magnetization       =     0.01 Bohr mag/cell
     absolute magnetization    =     0.01 Bohr mag/cell

     iteration # 36     ecut=    90.00 Ry     beta= 0.20
     Davidson diagonalization with overlap
     ethr =  2.36E-09,  avg # of iterations =  1.1

     total cpu time spent up to now is     1231.2 secs

     total energy              =   -2217.30961075 Ry
     estimated scf accuracy    <       0.00000425 Ry

     total magnetization       =     0.02 Bohr mag/cell
     absolute magnetization    =     0.02 Bohr mag/cell

     iteration # 37     ecut=    90.00 Ry     beta= 0.20
     Davidson diagonalization with overlap
     ethr =  2.36E-09,  avg # of iterations =  1.0

     total cpu time spent up to now is     1262.6 secs

     total energy              =   -2217.30961054 Ry
     estimated scf accuracy    <       0.00000514 Ry

     total magnetization       =     0.02 Bohr mag/cell
     absolute magnetization    =     0.02 Bohr mag/cell

     iteration # 38     ecut=    90.00 Ry     beta= 0.20
     Davidson diagonalization with overlap
     ethr =  2.36E-09,  avg # of iterations =  1.0

     total cpu time spent up to now is     1293.8 secs

     total energy              =   -2217.30961062 Ry
     estimated scf accuracy    <       0.00002002 Ry

     total magnetization       =     0.02 Bohr mag/cell
     absolute magnetization    =     0.02 Bohr mag/cell

     iteration # 39     ecut=    90.00 Ry     beta= 0.20
     Davidson diagonalization with overlap
     ethr =  2.36E-09,  avg # of iterations =  1.0

     total cpu time spent up to now is     1325.1 secs

     total energy              =   -2217.30961101 Ry
     estimated scf accuracy    <       0.00000669 Ry

     total magnetization       =     0.02 Bohr mag/cell
     absolute magnetization    =     0.02 Bohr mag/cell

     iteration # 40     ecut=    90.00 Ry     beta= 0.20
     Davidson diagonalization with overlap
     ethr =  2.36E-09,  avg # of iterations =  1.0

     total cpu time spent up to now is     1355.9 secs

     total energy              =   -2217.30961112 Ry
     estimated scf accuracy    <       0.00000438 Ry

     total magnetization       =     0.02 Bohr mag/cell
     absolute magnetization    =     0.03 Bohr mag/cell

     iteration # 41     ecut=    90.00 Ry     beta= 0.20
     Davidson diagonalization with overlap
     ethr =  2.36E-09,  avg # of iterations =  1.0

     total cpu time spent up to now is     1387.1 secs

     total energy              =   -2217.30961106 Ry
     estimated scf accuracy    <       0.00000323 Ry

     total magnetization       =     0.02 Bohr mag/cell
     absolute magnetization    =     0.03 Bohr mag/cell

     iteration # 42     ecut=    90.00 Ry     beta= 0.20
     Davidson diagonalization with overlap
     ethr =  2.36E-09,  avg # of iterations =  1.0

     total cpu time spent up to now is     1417.8 secs

     total energy              =   -2217.30961097 Ry
     estimated scf accuracy    <       0.00000330 Ry

     total magnetization       =     0.02 Bohr mag/cell
     absolute magnetization    =     0.02 Bohr mag/cell

     iteration # 43     ecut=    90.00 Ry     beta= 0.20
     Davidson diagonalization with overlap
     ethr =  2.36E-09,  avg # of iterations =  1.0

     total cpu time spent up to now is     1448.8 secs

     total energy              =   -2217.30961089 Ry
     estimated scf accuracy    <       0.00001079 Ry

     total magnetization       =     0.02 Bohr mag/cell
     absolute magnetization    =     0.02 Bohr mag/cell

     iteration # 44     ecut=    90.00 Ry     beta= 0.20
     Davidson diagonalization with overlap
     ethr =  2.36E-09,  avg # of iterations =  1.0

     total cpu time spent up to now is     1479.3 secs

     total energy              =   -2217.30961093 Ry
     estimated scf accuracy    <       0.00000417 Ry

     total magnetization       =     0.02 Bohr mag/cell
     absolute magnetization    =     0.02 Bohr mag/cell

     iteration # 45     ecut=    90.00 Ry     beta= 0.20
     Davidson diagonalization with overlap
     ethr =  2.36E-09,  avg # of iterations =  1.0

     total cpu time spent up to now is     1510.4 secs

     total energy              =   -2217.30961123 Ry
     estimated scf accuracy    <       0.00000261 Ry

     total magnetization       =     0.01 Bohr mag/cell
     absolute magnetization    =     0.02 Bohr mag/cell

     iteration # 46     ecut=    90.00 Ry     beta= 0.20
     Davidson diagonalization with overlap
     ethr =  1.98E-09,  avg # of iterations =  1.0

     total cpu time spent up to now is     1541.2 secs

     total energy              =   -2217.30961066 Ry
     estimated scf accuracy    <       0.00000353 Ry

     total magnetization       =     0.02 Bohr mag/cell
     absolute magnetization    =     0.03 Bohr mag/cell

     iteration # 47     ecut=    90.00 Ry     beta= 0.20
     Davidson diagonalization with overlap
     ethr =  1.98E-09,  avg # of iterations =  1.0

     total cpu time spent up to now is     1572.6 secs

     total energy              =   -2217.30961049 Ry
     estimated scf accuracy    <       0.00000282 Ry

     total magnetization       =     0.01 Bohr mag/cell
     absolute magnetization    =     0.02 Bohr mag/cell

     iteration # 48     ecut=    90.00 Ry     beta= 0.20
     Davidson diagonalization with overlap
     ethr =  1.98E-09,  avg # of iterations =  1.0

     total cpu time spent up to now is     1603.6 secs

     total energy              =   -2217.30961022 Ry
     estimated scf accuracy    <       0.00000480 Ry

     total magnetization       =     0.01 Bohr mag/cell
     absolute magnetization    =     0.01 Bohr mag/cell

     iteration # 49     ecut=    90.00 Ry     beta= 0.20
     Davidson diagonalization with overlap
     ethr =  1.98E-09,  avg # of iterations =  1.0

     total cpu time spent up to now is     1634.6 secs

     total energy              =   -2217.30961021 Ry
     estimated scf accuracy    <       0.00000326 Ry

     total magnetization       =     0.01 Bohr mag/cell
     absolute magnetization    =     0.01 Bohr mag/cell

     iteration # 50     ecut=    90.00 Ry     beta= 0.20
     Davidson diagonalization with overlap
     ethr =  1.98E-09,  avg # of iterations =  1.0

     total cpu time spent up to now is     1665.4 secs

     total energy              =   -2217.30961020 Ry
     estimated scf accuracy    <       0.00000934 Ry

     total magnetization       =     0.01 Bohr mag/cell
     absolute magnetization    =     0.01 Bohr mag/cell

     iteration # 51     ecut=    90.00 Ry     beta= 0.20
     Davidson diagonalization with overlap
     ethr =  1.98E-09,  avg # of iterations =  1.0

     total cpu time spent up to now is     1696.8 secs

     total energy              =   -2217.30961016 Ry
     estimated scf accuracy    <       0.00001382 Ry

     total magnetization       =     0.01 Bohr mag/cell
     absolute magnetization    =     0.01 Bohr mag/cell

     iteration # 52     ecut=    90.00 Ry     beta= 0.20
     Davidson diagonalization with overlap
     ethr =  1.98E-09,  avg # of iterations =  1.0

     total cpu time spent up to now is     1727.8 secs

     total energy              =   -2217.30961034 Ry
     estimated scf accuracy    <       0.00000279 Ry

     total magnetization       =     0.00 Bohr mag/cell
     absolute magnetization    =     0.01 Bohr mag/cell

     iteration # 53     ecut=    90.00 Ry     beta= 0.20
     Davidson diagonalization with overlap
     ethr =  1.98E-09,  avg # of iterations =  1.0

     total cpu time spent up to now is     1758.6 secs

     total energy              =   -2217.30961040 Ry
     estimated scf accuracy    <       0.00000021 Ry

     total magnetization       =     0.00 Bohr mag/cell
     absolute magnetization    =     0.01 Bohr mag/cell

     iteration # 54     ecut=    90.00 Ry     beta= 0.20
     Davidson diagonalization with overlap
     ethr =  1.59E-10,  avg # of iterations =  1.0

     total cpu time spent up to now is     1790.3 secs

     total energy              =   -2217.30961040 Ry
     estimated scf accuracy    <       0.00000038 Ry

     total magnetization       =     0.01 Bohr mag/cell
     absolute magnetization    =     0.01 Bohr mag/cell

     iteration # 55     ecut=    90.00 Ry     beta= 0.20
     Davidson diagonalization with overlap
     ethr =  1.59E-10,  avg # of iterations =  1.0

     total cpu time spent up to now is     1823.0 secs

     total energy              =   -2217.30961043 Ry
     estimated scf accuracy    <       0.00000035 Ry

     total magnetization       =     0.01 Bohr mag/cell
     absolute magnetization    =     0.01 Bohr mag/cell

     iteration # 56     ecut=    90.00 Ry     beta= 0.20
     Davidson diagonalization with overlap
     ethr =  1.59E-10,  avg # of iterations =  1.0

     total cpu time spent up to now is     1853.9 secs

     total energy              =   -2217.30961031 Ry
     estimated scf accuracy    <       0.00000022 Ry

     total magnetization       =     0.01 Bohr mag/cell
     absolute magnetization    =     0.01 Bohr mag/cell

     iteration # 57     ecut=    90.00 Ry     beta= 0.20
     Davidson diagonalization with overlap
     ethr =  1.59E-10,  avg # of iterations =  1.0

     total cpu time spent up to now is     1885.2 secs

     total energy              =   -2217.30961037 Ry
     estimated scf accuracy    <       0.00000017 Ry

     total magnetization       =     0.00 Bohr mag/cell
     absolute magnetization    =     0.01 Bohr mag/cell

     iteration # 58     ecut=    90.00 Ry     beta= 0.20
     Davidson diagonalization with overlap
     ethr =  1.26E-10,  avg # of iterations =  1.0

     total cpu time spent up to now is     1916.2 secs

     total energy              =   -2217.30961038 Ry
     estimated scf accuracy    <       0.00000018 Ry

     total magnetization       =     0.00 Bohr mag/cell
     absolute magnetization    =     0.01 Bohr mag/cell

     iteration # 59     ecut=    90.00 Ry     beta= 0.20
     Davidson diagonalization with overlap
     ethr =  1.26E-10,  avg # of iterations =  1.0

     total cpu time spent up to now is     1947.7 secs

     total energy              =   -2217.30961036 Ry
     estimated scf accuracy    <       0.00000013 Ry

     total magnetization       =     0.00 Bohr mag/cell
     absolute magnetization    =     0.01 Bohr mag/cell

     iteration # 60     ecut=    90.00 Ry     beta= 0.20
     Davidson diagonalization with overlap
     ethr =  9.71E-11,  avg # of iterations =  1.0

     total cpu time spent up to now is     1978.2 secs

     total energy              =   -2217.30961036 Ry
     estimated scf accuracy    <       0.00000015 Ry

     total magnetization       =     0.00 Bohr mag/cell
     absolute magnetization    =     0.01 Bohr mag/cell

     iteration # 61     ecut=    90.00 Ry     beta= 0.20
     Davidson diagonalization with overlap
     ethr =  9.71E-11,  avg # of iterations =  1.0

     total cpu time spent up to now is     2009.1 secs

     total energy              =   -2217.30961037 Ry
     estimated scf accuracy    <       0.00000011 Ry

     total magnetization       =     0.00 Bohr mag/cell
     absolute magnetization    =     0.01 Bohr mag/cell

     iteration # 62     ecut=    90.00 Ry     beta= 0.20
     Davidson diagonalization with overlap
     ethr =  8.40E-11,  avg # of iterations =  1.0

     total cpu time spent up to now is     2039.6 secs

     total energy              =   -2217.30961036 Ry
     estimated scf accuracy    <       0.00000020 Ry

     total magnetization       =     0.00 Bohr mag/cell
     absolute magnetization    =     0.01 Bohr mag/cell

     iteration # 63     ecut=    90.00 Ry     beta= 0.20
     Davidson diagonalization with overlap
     ethr =  8.40E-11,  avg # of iterations =  1.0

     total cpu time spent up to now is     2070.5 secs

     total energy              =   -2217.30961032 Ry
     estimated scf accuracy    <       0.00000024 Ry

     total magnetization       =     0.00 Bohr mag/cell
     absolute magnetization    =     0.01 Bohr mag/cell

     iteration # 64     ecut=    90.00 Ry     beta= 0.20
     Davidson diagonalization with overlap
     ethr =  8.40E-11,  avg # of iterations =  1.0

     total cpu time spent up to now is     2101.1 secs

     total energy              =   -2217.30961030 Ry
     estimated scf accuracy    <       0.00000012 Ry

     total magnetization       =     0.00 Bohr mag/cell
     absolute magnetization    =     0.01 Bohr mag/cell

     iteration # 65     ecut=    90.00 Ry     beta= 0.20
     Davidson diagonalization with overlap
     ethr =  8.40E-11,  avg # of iterations =  1.0

     total cpu time spent up to now is     2131.7 secs

     total energy              =   -2217.30961032 Ry
     estimated scf accuracy    <       0.00000012 Ry

     total magnetization       =     0.00 Bohr mag/cell
     absolute magnetization    =     0.01 Bohr mag/cell

     iteration # 66     ecut=    90.00 Ry     beta= 0.20
     Davidson diagonalization with overlap
     ethr =  8.40E-11,  avg # of iterations =  1.0

     total cpu time spent up to now is     2162.5 secs

     total energy              =   -2217.30961028 Ry
     estimated scf accuracy    <       0.00000012 Ry

     total magnetization       =     0.00 Bohr mag/cell
     absolute magnetization    =     0.01 Bohr mag/cell

     iteration # 67     ecut=    90.00 Ry     beta= 0.20
     Davidson diagonalization with overlap
     ethr =  8.40E-11,  avg # of iterations =  1.0

     total cpu time spent up to now is     2192.9 secs

     total energy              =   -2217.30961029 Ry
     estimated scf accuracy    <       0.00000008 Ry

     total magnetization       =     0.00 Bohr mag/cell
     absolute magnetization    =     0.01 Bohr mag/cell

     iteration # 68     ecut=    90.00 Ry     beta= 0.20
     Davidson diagonalization with overlap
     ethr =  5.94E-11,  avg # of iterations =  1.0

     total cpu time spent up to now is     2223.6 secs

     total energy              =   -2217.30961029 Ry
     estimated scf accuracy    <       0.00000013 Ry

     total magnetization       =     0.00 Bohr mag/cell
     absolute magnetization    =     0.01 Bohr mag/cell

     iteration # 69     ecut=    90.00 Ry     beta= 0.20
     Davidson diagonalization with overlap
     ethr =  5.94E-11,  avg # of iterations =  1.0

     total cpu time spent up to now is     2254.4 secs

     total energy              =   -2217.30961031 Ry
     estimated scf accuracy    <       0.00000005 Ry

     total magnetization       =     0.00 Bohr mag/cell
     absolute magnetization    =     0.01 Bohr mag/cell

     iteration # 70     ecut=    90.00 Ry     beta= 0.20
     Davidson diagonalization with overlap
     ethr =  3.65E-11,  avg # of iterations =  1.0

     total cpu time spent up to now is     2285.4 secs

     total energy              =   -2217.30961030 Ry
     estimated scf accuracy    <       0.00000004 Ry

     total magnetization       =     0.00 Bohr mag/cell
     absolute magnetization    =     0.01 Bohr mag/cell

     iteration # 71     ecut=    90.00 Ry     beta= 0.20
     Davidson diagonalization with overlap
     ethr =  3.21E-11,  avg # of iterations =  1.0

     total cpu time spent up to now is     2316.7 secs

     total energy              =   -2217.30961029 Ry
     estimated scf accuracy    <       0.00000010 Ry

     total magnetization       =     0.00 Bohr mag/cell
     absolute magnetization    =     0.01 Bohr mag/cell

     iteration # 72     ecut=    90.00 Ry     beta= 0.20
     Davidson diagonalization with overlap
     ethr =  3.21E-11,  avg # of iterations =  1.0

     total cpu time spent up to now is     2347.0 secs

     total energy              =   -2217.30961029 Ry
     estimated scf accuracy    <       0.00000005 Ry

     total magnetization       =     0.00 Bohr mag/cell
     absolute magnetization    =     0.01 Bohr mag/cell

     iteration # 73     ecut=    90.00 Ry     beta= 0.20
     Davidson diagonalization with overlap
     ethr =  3.21E-11,  avg # of iterations =  1.0

     total cpu time spent up to now is     2377.6 secs

     total energy              =   -2217.30961029 Ry
     estimated scf accuracy    <       0.00000005 Ry

     total magnetization       =     0.00 Bohr mag/cell
     absolute magnetization    =     0.01 Bohr mag/cell

     iteration # 74     ecut=    90.00 Ry     beta= 0.20
     Davidson diagonalization with overlap
     ethr =  3.21E-11,  avg # of iterations =  1.0

     total cpu time spent up to now is     2410.1 secs

     total energy              =   -2217.30961029 Ry
     estimated scf accuracy    <       0.00000007 Ry

     total magnetization       =     0.00 Bohr mag/cell
     absolute magnetization    =     0.01 Bohr mag/cell

     iteration # 75     ecut=    90.00 Ry     beta= 0.20
     Davidson diagonalization with overlap
     ethr =  3.21E-11,  avg # of iterations =  1.0

     total cpu time spent up to now is     2440.5 secs

     total energy              =   -2217.30961029 Ry
     estimated scf accuracy    <       0.00000004 Ry

     total magnetization       =     0.00 Bohr mag/cell
     absolute magnetization    =     0.01 Bohr mag/cell

     iteration # 76     ecut=    90.00 Ry     beta= 0.20
     Davidson diagonalization with overlap
     ethr =  3.17E-11,  avg # of iterations =  1.0

     total cpu time spent up to now is     2471.2 secs

     total energy              =   -2217.30961029 Ry
     estimated scf accuracy    <       0.00000005 Ry

     total magnetization       =     0.00 Bohr mag/cell
     absolute magnetization    =     0.01 Bohr mag/cell

     iteration # 77     ecut=    90.00 Ry     beta= 0.20
     Davidson diagonalization with overlap
     ethr =  3.17E-11,  avg # of iterations =  1.0

     total cpu time spent up to now is     2501.6 secs

     total energy              =   -2217.30961029 Ry
     estimated scf accuracy    <       0.00000004 Ry

     total magnetization       =     0.00 Bohr mag/cell
     absolute magnetization    =     0.01 Bohr mag/cell

     iteration # 78     ecut=    90.00 Ry     beta= 0.20
     Davidson diagonalization with overlap
     ethr =  3.17E-11,  avg # of iterations =  1.0

     total cpu time spent up to now is     2532.8 secs

     total energy              =   -2217.30961029 Ry
     estimated scf accuracy    <       0.00000005 Ry

     total magnetization       =     0.00 Bohr mag/cell
     absolute magnetization    =     0.01 Bohr mag/cell

     iteration # 79     ecut=    90.00 Ry     beta= 0.20
     Davidson diagonalization with overlap
     ethr =  3.17E-11,  avg # of iterations =  1.0

     total cpu time spent up to now is     2563.4 secs

     total energy              =   -2217.30961029 Ry
     estimated scf accuracy    <       0.00000004 Ry

     total magnetization       =     0.00 Bohr mag/cell
     absolute magnetization    =     0.01 Bohr mag/cell

     iteration # 80     ecut=    90.00 Ry     beta= 0.20
     Davidson diagonalization with overlap
     ethr =  3.08E-11,  avg # of iterations =  1.0

     total cpu time spent up to now is     2594.2 secs

     total energy              =   -2217.30961026 Ry
     estimated scf accuracy    <       0.00000015 Ry

     total magnetization       =     0.00 Bohr mag/cell
     absolute magnetization    =     0.01 Bohr mag/cell

     iteration # 81     ecut=    90.00 Ry     beta= 0.20
     Davidson diagonalization with overlap
     ethr =  3.08E-11,  avg # of iterations =  1.1

     total cpu time spent up to now is     2625.1 secs

     total energy              =   -2217.30961027 Ry
     estimated scf accuracy    <       0.00000018 Ry

     total magnetization       =     0.00 Bohr mag/cell
     absolute magnetization    =     0.00 Bohr mag/cell

     iteration # 82     ecut=    90.00 Ry     beta= 0.20
     Davidson diagonalization with overlap
     ethr =  3.08E-11,  avg # of iterations =  1.0

     total cpu time spent up to now is     2656.1 secs

     total energy              =   -2217.30961029 Ry
     estimated scf accuracy    <       0.00000008 Ry

     total magnetization       =     0.00 Bohr mag/cell
     absolute magnetization    =     0.01 Bohr mag/cell

     iteration # 83     ecut=    90.00 Ry     beta= 0.20
     Davidson diagonalization with overlap
     ethr =  3.08E-11,  avg # of iterations =  1.0

     total cpu time spent up to now is     2686.9 secs

     total energy              =   -2217.30961029 Ry
     estimated scf accuracy    <       0.00000005 Ry

     total magnetization       =     0.00 Bohr mag/cell
     absolute magnetization    =     0.01 Bohr mag/cell

     iteration # 84     ecut=    90.00 Ry     beta= 0.20
     Davidson diagonalization with overlap
     ethr =  3.08E-11,  avg # of iterations =  1.0

     total cpu time spent up to now is     2717.7 secs

     total energy              =   -2217.30961029 Ry
     estimated scf accuracy    <       0.00000005 Ry

     total magnetization       =     0.00 Bohr mag/cell
     absolute magnetization    =     0.01 Bohr mag/cell

     iteration # 85     ecut=    90.00 Ry     beta= 0.20
     Davidson diagonalization with overlap
     ethr =  3.08E-11,  avg # of iterations =  1.0

     total cpu time spent up to now is     2748.3 secs

     total energy              =   -2217.30961029 Ry
     estimated scf accuracy    <       0.00000005 Ry

     total magnetization       =     0.00 Bohr mag/cell
     absolute magnetization    =     0.01 Bohr mag/cell

     iteration # 86     ecut=    90.00 Ry     beta= 0.20
     Davidson diagonalization with overlap
     ethr =  3.08E-11,  avg # of iterations =  1.0

     total cpu time spent up to now is     2778.8 secs

     total energy              =   -2217.30961029 Ry
     estimated scf accuracy    <       0.00000005 Ry

     total magnetization       =     0.00 Bohr mag/cell
     absolute magnetization    =     0.01 Bohr mag/cell

     iteration # 87     ecut=    90.00 Ry     beta= 0.20
     Davidson diagonalization with overlap
     ethr =  3.08E-11,  avg # of iterations =  1.0

     total cpu time spent up to now is     2809.7 secs

     total energy              =   -2217.30961029 Ry
     estimated scf accuracy    <       0.00000004 Ry

     total magnetization       =     0.00 Bohr mag/cell
     absolute magnetization    =     0.01 Bohr mag/cell

     iteration # 88     ecut=    90.00 Ry     beta= 0.20
     Davidson diagonalization with overlap
     ethr =  2.77E-11,  avg # of iterations =  1.0

     total cpu time spent up to now is     2840.6 secs

     total energy              =   -2217.30961029 Ry
     estimated scf accuracy    <       0.00000004 Ry

     total magnetization       =     0.00 Bohr mag/cell
     absolute magnetization    =     0.01 Bohr mag/cell

     iteration # 89     ecut=    90.00 Ry     beta= 0.20
     Davidson diagonalization with overlap
     ethr =  2.77E-11,  avg # of iterations =  1.0

     total cpu time spent up to now is     2871.2 secs

     total energy              =   -2217.30961029 Ry
     estimated scf accuracy    <       0.00000005 Ry

     total magnetization       =     0.00 Bohr mag/cell
     absolute magnetization    =     0.01 Bohr mag/cell

     iteration # 90     ecut=    90.00 Ry     beta= 0.20
     Davidson diagonalization with overlap
     ethr =  2.77E-11,  avg # of iterations =  1.0

     total cpu time spent up to now is     2901.8 secs

     total energy              =   -2217.30961029 Ry
     estimated scf accuracy    <       0.00000006 Ry

     total magnetization       =     0.00 Bohr mag/cell
     absolute magnetization    =     0.01 Bohr mag/cell

     iteration # 91     ecut=    90.00 Ry     beta= 0.20
     Davidson diagonalization with overlap
     ethr =  2.77E-11,  avg # of iterations =  1.0

     total cpu time spent up to now is     2932.3 secs

     total energy              =   -2217.30961029 Ry
     estimated scf accuracy    <       0.00000038 Ry

     total magnetization       =     0.00 Bohr mag/cell
     absolute magnetization    =     0.01 Bohr mag/cell

     iteration # 92     ecut=    90.00 Ry     beta= 0.20
     Davidson diagonalization with overlap
     ethr =  2.77E-11,  avg # of iterations =  1.0

     total cpu time spent up to now is     2962.8 secs

     total energy              =   -2217.30961030 Ry
     estimated scf accuracy    <       0.00000003 Ry

     total magnetization       =     0.00 Bohr mag/cell
     absolute magnetization    =     0.01 Bohr mag/cell

     iteration # 93     ecut=    90.00 Ry     beta= 0.20
     Davidson diagonalization with overlap
     ethr =  2.49E-11,  avg # of iterations =  1.0

     total cpu time spent up to now is     2994.2 secs

     total energy              =   -2217.30961030 Ry
     estimated scf accuracy    <       0.00000019 Ry

     total magnetization       =     0.00 Bohr mag/cell
     absolute magnetization    =     0.01 Bohr mag/cell

     iteration # 94     ecut=    90.00 Ry     beta= 0.20
     Davidson diagonalization with overlap
     ethr =  2.49E-11,  avg # of iterations =  1.0

     total cpu time spent up to now is     3026.7 secs

     total energy              =   -2217.30961029 Ry
     estimated scf accuracy    <       0.00000004 Ry

     total magnetization       =     0.00 Bohr mag/cell
     absolute magnetization    =     0.01 Bohr mag/cell

     iteration # 95     ecut=    90.00 Ry     beta= 0.20
     Davidson diagonalization with overlap
     ethr =  2.49E-11,  avg # of iterations =  1.0

     total cpu time spent up to now is     3057.4 secs

     total energy              =   -2217.30961029 Ry
     estimated scf accuracy    <       0.00000004 Ry

     total magnetization       =     0.00 Bohr mag/cell
     absolute magnetization    =     0.01 Bohr mag/cell

     iteration # 96     ecut=    90.00 Ry     beta= 0.20
     Davidson diagonalization with overlap
     ethr =  2.49E-11,  avg # of iterations =  1.0

     total cpu time spent up to now is     3088.3 secs

     total energy              =   -2217.30961028 Ry
     estimated scf accuracy    <       0.00000005 Ry

     total magnetization       =     0.00 Bohr mag/cell
     absolute magnetization    =     0.01 Bohr mag/cell

     iteration # 97     ecut=    90.00 Ry     beta= 0.20
     Davidson diagonalization with overlap
     ethr =  2.49E-11,  avg # of iterations =  1.0

     total cpu time spent up to now is     3119.0 secs

     total energy              =   -2217.30961029 Ry
     estimated scf accuracy    <       0.00000003 Ry

     total magnetization       =    -0.00 Bohr mag/cell
     absolute magnetization    =     0.00 Bohr mag/cell

     iteration # 98     ecut=    90.00 Ry     beta= 0.20
     Davidson diagonalization with overlap
     ethr =  2.08E-11,  avg # of iterations =  1.0

     total cpu time spent up to now is     3149.8 secs

     total energy              =   -2217.30961029 Ry
     estimated scf accuracy    <       0.00000007 Ry

     total magnetization       =     0.00 Bohr mag/cell
     absolute magnetization    =     0.01 Bohr mag/cell

     iteration # 99     ecut=    90.00 Ry     beta= 0.20
     Davidson diagonalization with overlap
     ethr =  2.08E-11,  avg # of iterations =  1.0

     total cpu time spent up to now is     3180.6 secs

     total energy              =   -2217.30961029 Ry
     estimated scf accuracy    <       0.00000004 Ry

     total magnetization       =    -0.00 Bohr mag/cell
     absolute magnetization    =     0.01 Bohr mag/cell

     iteration #100     ecut=    90.00 Ry     beta= 0.20
     Davidson diagonalization with overlap
     ethr =  2.08E-11,  avg # of iterations =  1.0

     total cpu time spent up to now is     3210.7 secs

     total energy              =   -2217.30961030 Ry
     estimated scf accuracy    <       0.00000004 Ry

     total magnetization       =     0.00 Bohr mag/cell
     absolute magnetization    =     0.01 Bohr mag/cell

     iteration #101     ecut=    90.00 Ry     beta= 0.20
     Davidson diagonalization with overlap
     ethr =  2.08E-11,  avg # of iterations =  1.0

     total cpu time spent up to now is     3241.3 secs

     total energy              =   -2217.30961030 Ry
     estimated scf accuracy    <       0.00000010 Ry

     total magnetization       =     0.00 Bohr mag/cell
     absolute magnetization    =     0.01 Bohr mag/cell

     iteration #102     ecut=    90.00 Ry     beta= 0.20
     Davidson diagonalization with overlap
     ethr =  2.08E-11,  avg # of iterations =  1.0

     total cpu time spent up to now is     3272.1 secs

     total energy              =   -2217.30961028 Ry
     estimated scf accuracy    <       0.00000002 Ry

     total magnetization       =    -0.00 Bohr mag/cell
     absolute magnetization    =     0.01 Bohr mag/cell

     iteration #103     ecut=    90.00 Ry     beta= 0.20
     Davidson diagonalization with overlap
     ethr =  1.26E-11,  avg # of iterations =  1.0

     total cpu time spent up to now is     3303.2 secs

     total energy              =   -2217.30961028 Ry
     estimated scf accuracy    <       0.00000002 Ry

     total magnetization       =    -0.00 Bohr mag/cell
     absolute magnetization    =     0.00 Bohr mag/cell

     iteration #104     ecut=    90.00 Ry     beta= 0.20
     Davidson diagonalization with overlap
     ethr =  1.26E-11,  avg # of iterations =  1.0

     total cpu time spent up to now is     3333.8 secs

     total energy              =   -2217.30961028 Ry
     estimated scf accuracy    <       0.00000003 Ry

     total magnetization       =    -0.00 Bohr mag/cell
     absolute magnetization    =     0.00 Bohr mag/cell

     iteration #105     ecut=    90.00 Ry     beta= 0.20
     Davidson diagonalization with overlap
     ethr =  1.26E-11,  avg # of iterations =  1.0

     Magnetic moment per site:
     atom:    1    charge:   16.3548    magn:   -0.0000    constr:    0.0000
     atom:    2    charge:   12.8908    magn:   -0.0000    constr:    0.0000
     atom:    3    charge:   16.3548    magn:   -0.0000    constr:    0.0000
     atom:    4    charge:   12.8908    magn:   -0.0001    constr:    0.0000
     atom:    5    charge:   16.3549    magn:   -0.0001    constr:    0.0000
     atom:    6    charge:   12.8909    magn:    0.0000    constr:    0.0000
     atom:    7    charge:   16.3549    magn:   -0.0001    constr:    0.0000
     atom:    8    charge:   12.8909    magn:    0.0000    constr:    0.0000

     total cpu time spent up to now is     3364.6 secs

     End of self-consistent calculation

     Number of k-points >= 100: set verbosity='high' to print the bands.

     the Fermi energy is    16.1389 ev

!    total energy              =   -2217.30961029 Ry
     estimated scf accuracy    <          9.4E-09 Ry
     smearing contrib. (-TS)   =      -0.02005090 Ry
     internal energy E=F+TS    =   -2217.28955939 Ry

     The total energy is F=E-TS. E is the sum of the following terms:
     one-electron contribution =   -1248.16799092 Ry
     hartree contribution      =     694.36054480 Ry
     xc contribution           =    -247.89446707 Ry
     ewald contribution        =   -1415.58764621 Ry

     total magnetization       =    -0.00 Bohr mag/cell
     absolute magnetization    =     0.00 Bohr mag/cell

     convergence has been achieved in 105 iterations

     Forces acting on atoms (cartesian axes, Ry/au):

     atom    1 type  1   force =     0.00023889   -0.00000315   -0.00068523
     atom    2 type  2   force =     0.00124902    0.00000507    0.00104825
     atom    3 type  1   force =     0.00023887   -0.00000313   -0.00068505
     atom    4 type  2   force =     0.00124902    0.00000504    0.00104818
     atom    5 type  1   force =     0.00037799   -0.00000002   -0.00011382
     atom    6 type  2   force =    -0.00186601   -0.00000185   -0.00024922
     atom    7 type  1   force =     0.00037826   -0.00000010   -0.00011385
     atom    8 type  2   force =    -0.00186605   -0.00000186   -0.00024926

     Total force =     0.003711     Total SCF correction =     0.000003


     Computing stress (Cartesian axis) and pressure

          total   stress  (Ry/bohr**3)                   (kbar)     P=       -6.96
  -0.00009211  -0.00000000  -0.00000011          -13.55       -0.00       -0.02
  -0.00000000  -0.00002572  -0.00000000           -0.00       -3.78       -0.00
  -0.00000011  -0.00000000  -0.00002412           -0.02       -0.00       -3.55

     Energy error            =      1.4E-04
     Gradient error          =      1.9E-03

     number of scf cycles    =   2
     number of bfgs steps    =   1

     energy   old            =   -2217.3097528808 Ry
     energy   new            =   -2217.3096102905 Ry

     CASE: energy  _new > energy  _old

     new trust radius        =       0.0001281056 bohr
     new conv_thr            =       0.0000000100 Ry


ATOMIC_POSITIONS (angstrom)
Ni            0.0048040911        2.3137199007        0.0040406697
Mn            2.3342935911       -0.0041800993        2.3219406697
Ni            0.0048040911       -0.0041800993        2.3219406697
Mn            2.3342935911        2.3137199007        0.0040406697
Ni            2.3222499598        0.0013533724       -0.0073350663
Mn            0.0048040911        2.3137199007        2.3219406697
Ni            2.3222499598        2.3192533724        2.3105649337
Mn            0.0048040911       -0.0041800993        0.0040406697



     Writing output data file ./pwscf.save/
     NEW-OLD atomic charge density approx. for the potential

     Check: negative core charge=   -0.000015
     Generating pointlists ...

     total cpu time spent up to now is     3404.2 secs

     Self-consistent Calculation

     iteration #  1     ecut=    90.00 Ry     beta= 0.20
     Davidson diagonalization with overlap
     ethr =  1.00E-06,  avg # of iterations =  7.2

     total cpu time spent up to now is     3493.7 secs

     total energy              =   -2217.30965274 Ry
     estimated scf accuracy    <       0.00092147 Ry

     total magnetization       =    -0.00 Bohr mag/cell
     absolute magnetization    =     0.01 Bohr mag/cell

     iteration #  2     ecut=    90.00 Ry     beta= 0.20
     Davidson diagonalization with overlap
     ethr =  6.98E-07,  avg # of iterations =  1.3

     total cpu time spent up to now is     3525.9 secs

     total energy              =   -2217.30951797 Ry
     estimated scf accuracy    <       0.00562637 Ry

     total magnetization       =    -0.00 Bohr mag/cell
     absolute magnetization    =     0.01 Bohr mag/cell

     iteration #  3     ecut=    90.00 Ry     beta= 0.20
     Davidson diagonalization with overlap
     ethr =  6.98E-07,  avg # of iterations =  1.0

     total cpu time spent up to now is     3556.4 secs

     total energy              =   -2217.30952367 Ry
     estimated scf accuracy    <       0.00394199 Ry

     total magnetization       =    -0.00 Bohr mag/cell
     absolute magnetization    =     0.01 Bohr mag/cell

     iteration #  4     ecut=    90.00 Ry     beta= 0.20
     Davidson diagonalization with overlap
     ethr =  6.98E-07,  avg # of iterations =  1.9

     total cpu time spent up to now is     3590.6 secs

     total energy              =   -2217.30958644 Ry
     estimated scf accuracy    <       0.00051848 Ry

     total magnetization       =    -0.00 Bohr mag/cell
     absolute magnetization    =     0.01 Bohr mag/cell

     iteration #  5     ecut=    90.00 Ry     beta= 0.20
     Davidson diagonalization with overlap
     ethr =  3.93E-07,  avg # of iterations =  1.0

     total cpu time spent up to now is     3623.4 secs

     total energy              =   -2217.30960636 Ry
     estimated scf accuracy    <       0.00014608 Ry

     total magnetization       =    -0.00 Bohr mag/cell
     absolute magnetization    =     0.01 Bohr mag/cell

     iteration #  6     ecut=    90.00 Ry     beta= 0.20
     Davidson diagonalization with overlap
     ethr =  1.11E-07,  avg # of iterations =  1.0

     total cpu time spent up to now is     3654.5 secs

     total energy              =   -2217.30960473 Ry
     estimated scf accuracy    <       0.00055031 Ry

     total magnetization       =    -0.00 Bohr mag/cell
     absolute magnetization    =     0.01 Bohr mag/cell

     iteration #  7     ecut=    90.00 Ry     beta= 0.20
     Davidson diagonalization with overlap
     ethr =  1.11E-07,  avg # of iterations =  1.0

     total cpu time spent up to now is     3685.6 secs

     total energy              =   -2217.30961339 Ry
     estimated scf accuracy    <       0.00000577 Ry

     total magnetization       =    -0.00 Bohr mag/cell
     absolute magnetization    =     0.01 Bohr mag/cell

     iteration #  8     ecut=    90.00 Ry     beta= 0.20
     Davidson diagonalization with overlap
     ethr =  4.37E-09,  avg # of iterations =  2.1

     total cpu time spent up to now is     3721.1 secs

     total energy              =   -2217.30961261 Ry
     estimated scf accuracy    <       0.00007916 Ry

     total magnetization       =    -0.00 Bohr mag/cell
     absolute magnetization    =     0.01 Bohr mag/cell

     iteration #  9     ecut=    90.00 Ry     beta= 0.20
     Davidson diagonalization with overlap
     ethr =  4.37E-09,  avg # of iterations =  1.1

     total cpu time spent up to now is     3751.9 secs

     total energy              =   -2217.30961404 Ry
     estimated scf accuracy    <       0.00004395 Ry

     total magnetization       =    -0.00 Bohr mag/cell
     absolute magnetization    =     0.01 Bohr mag/cell

     iteration # 10     ecut=    90.00 Ry     beta= 0.20
     Davidson diagonalization with overlap
     ethr =  4.37E-09,  avg # of iterations =  1.0

     total cpu time spent up to now is     3782.9 secs

     total energy              =   -2217.30961513 Ry
     estimated scf accuracy    <       0.00000157 Ry

     total magnetization       =    -0.00 Bohr mag/cell
     absolute magnetization    =     0.01 Bohr mag/cell

     iteration # 11     ecut=    90.00 Ry     beta= 0.20
     Davidson diagonalization with overlap
     ethr =  1.19E-09,  avg # of iterations =  1.0

     total cpu time spent up to now is     3813.7 secs

     total energy              =   -2217.30961542 Ry
     estimated scf accuracy    <       0.00000053 Ry

     total magnetization       =    -0.00 Bohr mag/cell
     absolute magnetization    =     0.01 Bohr mag/cell

     iteration # 12     ecut=    90.00 Ry     beta= 0.20
     Davidson diagonalization with overlap
     ethr =  4.00E-10,  avg # of iterations =  1.1

     total cpu time spent up to now is     3845.0 secs

     total energy              =   -2217.30961553 Ry
     estimated scf accuracy    <       0.00000089 Ry

     total magnetization       =    -0.00 Bohr mag/cell
     absolute magnetization    =     0.02 Bohr mag/cell

     iteration # 13     ecut=    90.00 Ry     beta= 0.20
     Davidson diagonalization with overlap
     ethr =  4.00E-10,  avg # of iterations =  1.0

     total cpu time spent up to now is     3876.4 secs

     total energy              =   -2217.30961543 Ry
     estimated scf accuracy    <       0.00000176 Ry

     total magnetization       =    -0.00 Bohr mag/cell
     absolute magnetization    =     0.02 Bohr mag/cell

     iteration # 14     ecut=    90.00 Ry     beta= 0.20
     Davidson diagonalization with overlap
     ethr =  4.00E-10,  avg # of iterations =  1.0

     total cpu time spent up to now is     3907.0 secs

     total energy              =   -2217.30961544 Ry
     estimated scf accuracy    <       0.00000196 Ry

     total magnetization       =    -0.00 Bohr mag/cell
     absolute magnetization    =     0.01 Bohr mag/cell

     iteration # 15     ecut=    90.00 Ry     beta= 0.20
     Davidson diagonalization with overlap
     ethr =  4.00E-10,  avg # of iterations =  1.0

     total cpu time spent up to now is     3937.6 secs

     total energy              =   -2217.30961545 Ry
     estimated scf accuracy    <       0.00000045 Ry

     total magnetization       =    -0.00 Bohr mag/cell
     absolute magnetization    =     0.01 Bohr mag/cell

     iteration # 16     ecut=    90.00 Ry     beta= 0.20
     Davidson diagonalization with overlap
     ethr =  3.44E-10,  avg # of iterations =  1.0

     total cpu time spent up to now is     3968.4 secs

     total energy              =   -2217.30961535 Ry
     estimated scf accuracy    <       0.00000673 Ry

     total magnetization       =    -0.00 Bohr mag/cell
     absolute magnetization    =     0.01 Bohr mag/cell

     iteration # 17     ecut=    90.00 Ry     beta= 0.20
     Davidson diagonalization with overlap
     ethr =  3.44E-10,  avg # of iterations =  1.0

     total cpu time spent up to now is     3999.1 secs

     total energy              =   -2217.30961544 Ry
     estimated scf accuracy    <       0.00000036 Ry

     total magnetization       =    -0.00 Bohr mag/cell
     absolute magnetization    =     0.01 Bohr mag/cell

     iteration # 18     ecut=    90.00 Ry     beta= 0.20
     Davidson diagonalization with overlap
     ethr =  2.73E-10,  avg # of iterations =  1.0

     total cpu time spent up to now is     4030.3 secs

     total energy              =   -2217.30961544 Ry
     estimated scf accuracy    <       0.00000087 Ry

     total magnetization       =    -0.00 Bohr mag/cell
     absolute magnetization    =     0.01 Bohr mag/cell

     iteration # 19     ecut=    90.00 Ry     beta= 0.20
     Davidson diagonalization with overlap
     ethr =  2.73E-10,  avg # of iterations =  1.0

     total cpu time spent up to now is     4060.7 secs

     total energy              =   -2217.30961544 Ry
     estimated scf accuracy    <       0.00000139 Ry

     total magnetization       =    -0.00 Bohr mag/cell
     absolute magnetization    =     0.01 Bohr mag/cell

     iteration # 20     ecut=    90.00 Ry     beta= 0.20
     Davidson diagonalization with overlap
     ethr =  2.73E-10,  avg # of iterations =  1.0

     total cpu time spent up to now is     4091.3 secs

     total energy              =   -2217.30961547 Ry
     estimated scf accuracy    <       0.00000034 Ry

     total magnetization       =    -0.00 Bohr mag/cell
     absolute magnetization    =     0.01 Bohr mag/cell

     iteration # 21     ecut=    90.00 Ry     beta= 0.20
     Davidson diagonalization with overlap
     ethr =  2.59E-10,  avg # of iterations =  1.0

     total cpu time spent up to now is     4122.3 secs

     total energy              =   -2217.30961552 Ry
     estimated scf accuracy    <       0.00000014 Ry

     total magnetization       =     0.00 Bohr mag/cell
     absolute magnetization    =     0.01 Bohr mag/cell

     iteration # 22     ecut=    90.00 Ry     beta= 0.20
     Davidson diagonalization with overlap
     ethr =  1.05E-10,  avg # of iterations =  1.1

     total cpu time spent up to now is     4153.8 secs

     total energy              =   -2217.30961556 Ry
     estimated scf accuracy    <       0.00000014 Ry

     total magnetization       =     0.00 Bohr mag/cell
     absolute magnetization    =     0.01 Bohr mag/cell

     iteration # 23     ecut=    90.00 Ry     beta= 0.20
     Davidson diagonalization with overlap
     ethr =  1.05E-10,  avg # of iterations =  1.0

     total cpu time spent up to now is     4184.5 secs

     total energy              =   -2217.30961557 Ry
     estimated scf accuracy    <       0.00000012 Ry

     total magnetization       =     0.00 Bohr mag/cell
     absolute magnetization    =     0.01 Bohr mag/cell

     iteration # 24     ecut=    90.00 Ry     beta= 0.20
     Davidson diagonalization with overlap
     ethr =  8.97E-11,  avg # of iterations =  1.0

     total cpu time spent up to now is     4217.3 secs

     total energy              =   -2217.30961558 Ry
     estimated scf accuracy    <       0.00000026 Ry

     total magnetization       =     0.00 Bohr mag/cell
     absolute magnetization    =     0.01 Bohr mag/cell

     iteration # 25     ecut=    90.00 Ry     beta= 0.20
     Davidson diagonalization with overlap
     ethr =  8.97E-11,  avg # of iterations =  1.0

     total cpu time spent up to now is     4248.1 secs

     total energy              =   -2217.30961554 Ry
     estimated scf accuracy    <       0.00000018 Ry

     total magnetization       =     0.00 Bohr mag/cell
     absolute magnetization    =     0.01 Bohr mag/cell

     iteration # 26     ecut=    90.00 Ry     beta= 0.20
     Davidson diagonalization with overlap
     ethr =  8.97E-11,  avg # of iterations =  1.0

     total cpu time spent up to now is     4279.4 secs

     total energy              =   -2217.30961554 Ry
     estimated scf accuracy    <       0.00000152 Ry

     total magnetization       =     0.00 Bohr mag/cell
     absolute magnetization    =     0.01 Bohr mag/cell

     iteration # 27     ecut=    90.00 Ry     beta= 0.20
     Davidson diagonalization with overlap
     ethr =  8.97E-11,  avg # of iterations =  1.0

     total cpu time spent up to now is     4310.5 secs

     total energy              =   -2217.30961554 Ry
     estimated scf accuracy    <       0.00000018 Ry

     total magnetization       =     0.00 Bohr mag/cell
     absolute magnetization    =     0.01 Bohr mag/cell

     iteration # 28     ecut=    90.00 Ry     beta= 0.20
     Davidson diagonalization with overlap
     ethr =  8.97E-11,  avg # of iterations =  1.0

     total cpu time spent up to now is     4341.3 secs

     total energy              =   -2217.30961554 Ry
     estimated scf accuracy    <       0.00000016 Ry

     total magnetization       =     0.00 Bohr mag/cell
     absolute magnetization    =     0.01 Bohr mag/cell

     iteration # 29     ecut=    90.00 Ry     beta= 0.20
     Davidson diagonalization with overlap
     ethr =  8.97E-11,  avg # of iterations =  1.0

     total cpu time spent up to now is     4371.9 secs

     total energy              =   -2217.30961555 Ry
     estimated scf accuracy    <       0.00000012 Ry

     total magnetization       =     0.00 Bohr mag/cell
     absolute magnetization    =     0.01 Bohr mag/cell

     iteration # 30     ecut=    90.00 Ry     beta= 0.20
     Davidson diagonalization with overlap
     ethr =  8.97E-11,  avg # of iterations =  1.0

     total cpu time spent up to now is     4401.8 secs

     total energy              =   -2217.30961557 Ry
     estimated scf accuracy    <       0.00000014 Ry

     total magnetization       =     0.00 Bohr mag/cell
     absolute magnetization    =     0.01 Bohr mag/cell

     iteration # 31     ecut=    90.00 Ry     beta= 0.20
     Davidson diagonalization with overlap
     ethr =  8.97E-11,  avg # of iterations =  1.0

     total cpu time spent up to now is     4432.1 secs

     total energy              =   -2217.30961557 Ry
     estimated scf accuracy    <       0.00000014 Ry

     total magnetization       =     0.00 Bohr mag/cell
     absolute magnetization    =     0.01 Bohr mag/cell

     iteration # 32     ecut=    90.00 Ry     beta= 0.20
     Davidson diagonalization with overlap
     ethr =  8.97E-11,  avg # of iterations =  1.0

     total cpu time spent up to now is     4462.8 secs

     total energy              =   -2217.30961557 Ry
     estimated scf accuracy    <       0.00000016 Ry

     total magnetization       =     0.00 Bohr mag/cell
     absolute magnetization    =     0.01 Bohr mag/cell

     iteration # 33     ecut=    90.00 Ry     beta= 0.20
     Davidson diagonalization with overlap
     ethr =  8.97E-11,  avg # of iterations =  1.0

     total cpu time spent up to now is     4492.9 secs

     total energy              =   -2217.30961557 Ry
     estimated scf accuracy    <       0.00000021 Ry

     total magnetization       =     0.00 Bohr mag/cell
     absolute magnetization    =     0.01 Bohr mag/cell

     iteration # 34     ecut=    90.00 Ry     beta= 0.20
     Davidson diagonalization with overlap
     ethr =  8.97E-11,  avg # of iterations =  1.0

     total cpu time spent up to now is     4523.5 secs

     total energy              =   -2217.30961557 Ry
     estimated scf accuracy    <       0.00000064 Ry

     total magnetization       =    -0.00 Bohr mag/cell
     absolute magnetization    =     0.01 Bohr mag/cell

     iteration # 35     ecut=    90.00 Ry     beta= 0.20
     Davidson diagonalization with overlap
     ethr =  8.97E-11,  avg # of iterations =  1.0

     total cpu time spent up to now is     4554.7 secs

     total energy              =   -2217.30961557 Ry
     estimated scf accuracy    <       0.00000019 Ry

     total magnetization       =    -0.00 Bohr mag/cell
     absolute magnetization    =     0.01 Bohr mag/cell

     iteration # 36     ecut=    90.00 Ry     beta= 0.20
     Davidson diagonalization with overlap
     ethr =  8.97E-11,  avg # of iterations =  1.0

     total cpu time spent up to now is     4585.3 secs

     total energy              =   -2217.30961556 Ry
     estimated scf accuracy    <       0.00000057 Ry

     total magnetization       =    -0.00 Bohr mag/cell
     absolute magnetization    =     0.01 Bohr mag/cell

     iteration # 37     ecut=    90.00 Ry     beta= 0.20
     Davidson diagonalization with overlap
     ethr =  8.97E-11,  avg # of iterations =  1.0

     total cpu time spent up to now is     4616.3 secs

     total energy              =   -2217.30961557 Ry
     estimated scf accuracy    <       0.00000028 Ry

     total magnetization       =    -0.00 Bohr mag/cell
     absolute magnetization    =     0.01 Bohr mag/cell

     iteration # 38     ecut=    90.00 Ry     beta= 0.20
     Davidson diagonalization with overlap
     ethr =  8.97E-11,  avg # of iterations =  1.0

     total cpu time spent up to now is     4646.6 secs

     total energy              =   -2217.30961560 Ry
     estimated scf accuracy    <       0.00000052 Ry

     total magnetization       =     0.00 Bohr mag/cell
     absolute magnetization    =     0.01 Bohr mag/cell

     iteration # 39     ecut=    90.00 Ry     beta= 0.20
     Davidson diagonalization with overlap
     ethr =  8.97E-11,  avg # of iterations =  1.0

     total cpu time spent up to now is     4677.4 secs

     total energy              =   -2217.30961563 Ry
     estimated scf accuracy    <       0.00000037 Ry

     total magnetization       =     0.00 Bohr mag/cell
     absolute magnetization    =     0.01 Bohr mag/cell

     iteration # 40     ecut=    90.00 Ry     beta= 0.20
     Davidson diagonalization with overlap
     ethr =  8.97E-11,  avg # of iterations =  1.0

     total cpu time spent up to now is     4708.1 secs

     total energy              =   -2217.30961564 Ry
     estimated scf accuracy    <       0.00000020 Ry

     total magnetization       =     0.00 Bohr mag/cell
     absolute magnetization    =     0.02 Bohr mag/cell

     iteration # 41     ecut=    90.00 Ry     beta= 0.20
     Davidson diagonalization with overlap
     ethr =  8.97E-11,  avg # of iterations =  1.0

     total cpu time spent up to now is     4738.9 secs

     total energy              =   -2217.30961566 Ry
     estimated scf accuracy    <       0.00000028 Ry

     total magnetization       =     0.00 Bohr mag/cell
     absolute magnetization    =     0.02 Bohr mag/cell

     iteration # 42     ecut=    90.00 Ry     beta= 0.20
     Davidson diagonalization with overlap
     ethr =  8.97E-11,  avg # of iterations =  1.0

     total cpu time spent up to now is     4769.5 secs

     total energy              =   -2217.30961567 Ry
     estimated scf accuracy    <       0.00000030 Ry

     total magnetization       =     0.00 Bohr mag/cell
     absolute magnetization    =     0.02 Bohr mag/cell

     iteration # 43     ecut=    90.00 Ry     beta= 0.20
     Davidson diagonalization with overlap
     ethr =  8.97E-11,  avg # of iterations =  1.0

     total cpu time spent up to now is     4800.7 secs

     total energy              =   -2217.30961566 Ry
     estimated scf accuracy    <       0.00000028 Ry

     total magnetization       =     0.00 Bohr mag/cell
     absolute magnetization    =     0.02 Bohr mag/cell

     iteration # 44     ecut=    90.00 Ry     beta= 0.20
     Davidson diagonalization with overlap
     ethr =  8.97E-11,  avg # of iterations =  1.0

     total cpu time spent up to now is     4833.4 secs

     total energy              =   -2217.30961565 Ry
     estimated scf accuracy    <       0.00000144 Ry

     total magnetization       =     0.00 Bohr mag/cell
     absolute magnetization    =     0.02 Bohr mag/cell

     iteration # 45     ecut=    90.00 Ry     beta= 0.20
     Davidson diagonalization with overlap
     ethr =  8.97E-11,  avg # of iterations =  1.0

     total cpu time spent up to now is     4864.0 secs

     total energy              =   -2217.30961568 Ry
     estimated scf accuracy    <       0.00000045 Ry

     total magnetization       =     0.00 Bohr mag/cell
     absolute magnetization    =     0.02 Bohr mag/cell

     iteration # 46     ecut=    90.00 Ry     beta= 0.20
     Davidson diagonalization with overlap
     ethr =  8.97E-11,  avg # of iterations =  1.0

     total cpu time spent up to now is     4895.3 secs

     total energy              =   -2217.30961569 Ry
     estimated scf accuracy    <       0.00000186 Ry

     total magnetization       =     0.00 Bohr mag/cell
     absolute magnetization    =     0.02 Bohr mag/cell

     iteration # 47     ecut=    90.00 Ry     beta= 0.20
     Davidson diagonalization with overlap
     ethr =  8.97E-11,  avg # of iterations =  1.0

     total cpu time spent up to now is     4926.3 secs

     total energy              =   -2217.30961572 Ry
     estimated scf accuracy    <       0.00000040 Ry

     total magnetization       =     0.00 Bohr mag/cell
     absolute magnetization    =     0.02 Bohr mag/cell

     iteration # 48     ecut=    90.00 Ry     beta= 0.20
     Davidson diagonalization with overlap
     ethr =  8.97E-11,  avg # of iterations =  1.0

     total cpu time spent up to now is     4957.0 secs

     total energy              =   -2217.30961572 Ry
     estimated scf accuracy    <       0.00000031 Ry

     total magnetization       =     0.00 Bohr mag/cell
     absolute magnetization    =     0.02 Bohr mag/cell

     iteration # 49     ecut=    90.00 Ry     beta= 0.20
     Davidson diagonalization with overlap
     ethr =  8.97E-11,  avg # of iterations =  1.0

     total cpu time spent up to now is     4988.0 secs

     total energy              =   -2217.30961571 Ry
     estimated scf accuracy    <       0.00000110 Ry

     total magnetization       =     0.00 Bohr mag/cell
     absolute magnetization    =     0.02 Bohr mag/cell

     iteration # 50     ecut=    90.00 Ry     beta= 0.20
     Davidson diagonalization with overlap
     ethr =  8.97E-11,  avg # of iterations =  1.9

     total cpu time spent up to now is     5022.3 secs

     total energy              =   -2217.30961573 Ry
     estimated scf accuracy    <       0.00000097 Ry

     total magnetization       =     0.00 Bohr mag/cell
     absolute magnetization    =     0.02 Bohr mag/cell

     iteration # 51     ecut=    90.00 Ry     beta= 0.20
     Davidson diagonalization with overlap
     ethr =  8.97E-11,  avg # of iterations =  1.0

     total cpu time spent up to now is     5053.1 secs

     total energy              =   -2217.30961572 Ry
     estimated scf accuracy    <       0.00000043 Ry

     total magnetization       =     0.00 Bohr mag/cell
     absolute magnetization    =     0.02 Bohr mag/cell

     iteration # 52     ecut=    90.00 Ry     beta= 0.20
     Davidson diagonalization with overlap
     ethr =  8.97E-11,  avg # of iterations =  1.0

     total cpu time spent up to now is     5083.8 secs

     total energy              =   -2217.30961573 Ry
     estimated scf accuracy    <       0.00000076 Ry

     total magnetization       =     0.00 Bohr mag/cell
     absolute magnetization    =     0.02 Bohr mag/cell

     iteration # 53     ecut=    90.00 Ry     beta= 0.20
     Davidson diagonalization with overlap
     ethr =  8.97E-11,  avg # of iterations =  1.8

     total cpu time spent up to now is     5117.4 secs

     total energy              =   -2217.30961569 Ry
     estimated scf accuracy    <       0.00000136 Ry

     total magnetization       =     0.00 Bohr mag/cell
     absolute magnetization    =     0.02 Bohr mag/cell

     iteration # 54     ecut=    90.00 Ry     beta= 0.20
     Davidson diagonalization with overlap
     ethr =  8.97E-11,  avg # of iterations =  1.5

     total cpu time spent up to now is     5149.9 secs

     total energy              =   -2217.30961575 Ry
     estimated scf accuracy    <       0.00000318 Ry

     total magnetization       =     0.01 Bohr mag/cell
     absolute magnetization    =     0.02 Bohr mag/cell

     iteration # 55     ecut=    90.00 Ry     beta= 0.20
     Davidson diagonalization with overlap
     ethr =  8.97E-11,  avg # of iterations =  1.4

     total cpu time spent up to now is     5181.9 secs

     total energy              =   -2217.30961581 Ry
     estimated scf accuracy    <       0.00000063 Ry

     total magnetization       =     0.01 Bohr mag/cell
     absolute magnetization    =     0.02 Bohr mag/cell

     iteration # 56     ecut=    90.00 Ry     beta= 0.20
     Davidson diagonalization with overlap
     ethr =  8.97E-11,  avg # of iterations =  1.0

     total cpu time spent up to now is     5212.6 secs

     total energy              =   -2217.30961577 Ry
     estimated scf accuracy    <       0.00000108 Ry

     total magnetization       =     0.01 Bohr mag/cell
     absolute magnetization    =     0.02 Bohr mag/cell

     iteration # 57     ecut=    90.00 Ry     beta= 0.20
     Davidson diagonalization with overlap
     ethr =  8.97E-11,  avg # of iterations =  1.0

     total cpu time spent up to now is     5242.6 secs

     total energy              =   -2217.30961579 Ry
     estimated scf accuracy    <       0.00000072 Ry

     total magnetization       =     0.01 Bohr mag/cell
     absolute magnetization    =     0.02 Bohr mag/cell

     iteration # 58     ecut=    90.00 Ry     beta= 0.20
     Davidson diagonalization with overlap
     ethr =  8.97E-11,  avg # of iterations =  2.1

     total cpu time spent up to now is     5277.4 secs

     total energy              =   -2217.30961587 Ry
     estimated scf accuracy    <       0.00000277 Ry

     total magnetization       =     0.01 Bohr mag/cell
     absolute magnetization    =     0.02 Bohr mag/cell

     iteration # 59     ecut=    90.00 Ry     beta= 0.20
     Davidson diagonalization with overlap
     ethr =  8.97E-11,  avg # of iterations =  1.0

     total cpu time spent up to now is     5307.8 secs

     total energy              =   -2217.30961588 Ry
     estimated scf accuracy    <       0.00000094 Ry

     total magnetization       =     0.00 Bohr mag/cell
[...]
     estimated scf accuracy    <       0.00000004 Ry

     total magnetization       =    -0.00 Bohr mag/cell
     absolute magnetization    =     0.01 Bohr mag/cell

     iteration #237     ecut=    90.00 Ry     beta= 0.20
     Davidson diagonalization with overlap
     ethr =  2.26E-11,  avg # of iterations =  1.0

     total cpu time spent up to now is    11500.8 secs

     total energy              =   -2217.30961541 Ry
     estimated scf accuracy    <       0.00000006 Ry

     total magnetization       =    -0.00 Bohr mag/cell
     absolute magnetization    =     0.01 Bohr mag/cell

     iteration #238     ecut=    90.00 Ry     beta= 0.20
     Davidson diagonalization with overlap
     ethr =  2.26E-11,  avg # of iterations =  1.2

     total cpu time spent up to now is    11532.0 secs

     total energy              =   -2217.30961543 Ry
     estimated scf accuracy    <       0.00000004 Ry

     total magnetization       =    -0.00 Bohr mag/cell
     absolute magnetization    =     0.01 Bohr mag/cell

     iteration #239     ecut=    90.00 Ry     beta= 0.20
     Davidson diagonalization with overlap
     ethr =  2.26E-11,  avg # of iterations =  1.0

     total cpu time spent up to now is    11562.5 secs

     total energy              =   -2217.30961539 Ry
     estimated scf accuracy    <       0.00000005 Ry

     total magnetization       =    -0.00 Bohr mag/cell
     absolute magnetization    =     0.01 Bohr mag/cell

     iteration #240     ecut=    90.00 Ry     beta= 0.20
     Davidson diagonalization with overlap
     ethr =  2.26E-11,  avg # of iterations =  1.0

     total cpu time spent up to now is    11593.5 secs

     total energy              =   -2217.30961541 Ry
     estimated scf accuracy    <       0.00000004 Ry

     total magnetization       =    -0.00 Bohr mag/cell
     absolute magnetization    =     0.01 Bohr mag/cell

     iteration #241     ecut=    90.00 Ry     beta= 0.20
     Davidson diagonalization with overlap
     ethr =  2.26E-11,  avg # of iterations =  1.0

     total cpu time spent up to now is    11624.1 secs

     total energy              =   -2217.30961541 Ry
     estimated scf accuracy    <       0.00000004 Ry

     total magnetization       =    -0.00 Bohr mag/cell
     absolute magnetization    =     0.01 Bohr mag/cell

     iteration #242     ecut=    90.00 Ry     beta= 0.20
     Davidson diagonalization with overlap
     ethr =  2.26E-11,  avg # of iterations =  1.0

     total cpu time spent up to now is    11655.0 secs

     total energy              =   -2217.30961540 Ry
     estimated scf accuracy    <       0.00000004 Ry

     total magnetization       =    -0.00 Bohr mag/cell
     absolute magnetization    =     0.01 Bohr mag/cell

     iteration #243     ecut=    90.00 Ry     beta= 0.20
     Davidson diagonalization with overlap
     ethr =  2.26E-11,  avg # of iterations =  1.0

     total cpu time spent up to now is    11685.9 secs

     total energy              =   -2217.30961540 Ry
     estimated scf accuracy    <       0.00000015 Ry

     total magnetization       =    -0.00 Bohr mag/cell
     absolute magnetization    =     0.01 Bohr mag/cell

     iteration #244     ecut=    90.00 Ry     beta= 0.20
     Davidson diagonalization with overlap
     ethr =  2.26E-11,  avg # of iterations =  1.0

     total cpu time spent up to now is    11716.6 secs

     total energy              =   -2217.30961540 Ry
     estimated scf accuracy    <       0.00000004 Ry

     total magnetization       =    -0.00 Bohr mag/cell
     absolute magnetization    =     0.01 Bohr mag/cell

     iteration #245     ecut=    90.00 Ry     beta= 0.20
     Davidson diagonalization with overlap
     ethr =  2.26E-11,  avg # of iterations =  1.0

     total cpu time spent up to now is    11747.6 secs

     total energy              =   -2217.30961541 Ry
     estimated scf accuracy    <       0.00000004 Ry

     total magnetization       =    -0.00 Bohr mag/cell
     absolute magnetization    =     0.01 Bohr mag/cell

     iteration #246     ecut=    90.00 Ry     beta= 0.20
     Davidson diagonalization with overlap
     ethr =  2.26E-11,  avg # of iterations =  1.0

     total cpu time spent up to now is    11778.2 secs

     total energy              =   -2217.30961541 Ry
     estimated scf accuracy    <       0.00000004 Ry

     total magnetization       =    -0.00 Bohr mag/cell
     absolute magnetization    =     0.01 Bohr mag/cell

     iteration #247     ecut=    90.00 Ry     beta= 0.20
     Davidson diagonalization with overlap
     ethr =  2.26E-11,  avg # of iterations =  1.0

     total cpu time spent up to now is    11809.0 secs

     total energy              =   -2217.30961541 Ry
     estimated scf accuracy    <       0.00000005 Ry

     total magnetization       =    -0.00 Bohr mag/cell
     absolute magnetization    =     0.01 Bohr mag/cell

     iteration #248     ecut=    90.00 Ry     beta= 0.20
     Davidson diagonalization with overlap
     ethr =  2.26E-11,  avg # of iterations =  1.0

     total cpu time spent up to now is    11839.8 secs

     total energy              =   -2217.30961541 Ry
     estimated scf accuracy    <       0.00000003 Ry

     total magnetization       =     0.00 Bohr mag/cell
     absolute magnetization    =     0.01 Bohr mag/cell

     iteration #249     ecut=    90.00 Ry     beta= 0.20
     Davidson diagonalization with overlap
     ethr =  2.08E-11,  avg # of iterations =  1.0

     total cpu time spent up to now is    11870.7 secs

     total energy              =   -2217.30961542 Ry
     estimated scf accuracy    <       0.00000003 Ry

     total magnetization       =     0.00 Bohr mag/cell
     absolute magnetization    =     0.01 Bohr mag/cell

     iteration #250     ecut=    90.00 Ry     beta= 0.20
     Davidson diagonalization with overlap
     ethr =  2.08E-11,  avg # of iterations =  1.0

     total cpu time spent up to now is    11901.5 secs

     total energy              =   -2217.30961540 Ry
     estimated scf accuracy    <       0.00000003 Ry

     total magnetization       =     0.00 Bohr mag/cell
     absolute magnetization    =     0.01 Bohr mag/cell

     iteration #251     ecut=    90.00 Ry     beta= 0.20
     Davidson diagonalization with overlap
     ethr =  2.08E-11,  avg # of iterations =  1.0

     total cpu time spent up to now is    11932.4 secs

     total energy              =   -2217.30961538 Ry
     estimated scf accuracy    <       0.00000003 Ry

     total magnetization       =     0.00 Bohr mag/cell
     absolute magnetization    =     0.01 Bohr mag/cell

     iteration #252     ecut=    90.00 Ry     beta= 0.20
     Davidson diagonalization with overlap
     ethr =  2.08E-11,  avg # of iterations =  1.0

     total cpu time spent up to now is    11963.1 secs

     total energy              =   -2217.30961539 Ry
     estimated scf accuracy    <       0.00000003 Ry

     total magnetization       =     0.00 Bohr mag/cell
     absolute magnetization    =     0.01 Bohr mag/cell

     iteration #253     ecut=    90.00 Ry     beta= 0.20
     Davidson diagonalization with overlap
     ethr =  1.96E-11,  avg # of iterations =  1.0

     total cpu time spent up to now is    11993.6 secs

     total energy              =   -2217.30961539 Ry
     estimated scf accuracy    <       0.00000004 Ry

     total magnetization       =     0.00 Bohr mag/cell
     absolute magnetization    =     0.01 Bohr mag/cell

     iteration #254     ecut=    90.00 Ry     beta= 0.20
     Davidson diagonalization with overlap
     ethr =  1.96E-11,  avg # of iterations =  1.0

     total cpu time spent up to now is    12026.4 secs

     total energy              =   -2217.30961539 Ry
     estimated scf accuracy    <       0.00000003 Ry

     total magnetization       =     0.00 Bohr mag/cell
     absolute magnetization    =     0.01 Bohr mag/cell

     iteration #255     ecut=    90.00 Ry     beta= 0.20
     Davidson diagonalization with overlap
     ethr =  1.96E-11,  avg # of iterations =  1.0

     total cpu time spent up to now is    12057.7 secs

     total energy              =   -2217.30961537 Ry
     estimated scf accuracy    <       0.00000005 Ry

     total magnetization       =     0.00 Bohr mag/cell
     absolute magnetization    =     0.01 Bohr mag/cell

     iteration #256     ecut=    90.00 Ry     beta= 0.20
     Davidson diagonalization with overlap
     ethr =  1.96E-11,  avg # of iterations =  1.0

     total cpu time spent up to now is    12088.8 secs

     total energy              =   -2217.30961536 Ry
     estimated scf accuracy    <       0.00000004 Ry

     total magnetization       =    -0.00 Bohr mag/cell
     absolute magnetization    =     0.01 Bohr mag/cell

     iteration #257     ecut=    90.00 Ry     beta= 0.20
     Davidson diagonalization with overlap
     ethr =  1.96E-11,  avg # of iterations =  1.0

     total cpu time spent up to now is    12119.3 secs

     total energy              =   -2217.30961537 Ry
     estimated scf accuracy    <       0.00000004 Ry

     total magnetization       =    -0.00 Bohr mag/cell
     absolute magnetization    =     0.01 Bohr mag/cell

     iteration #258     ecut=    90.00 Ry     beta= 0.20
     Davidson diagonalization with overlap
     ethr =  1.96E-11,  avg # of iterations =  1.0

     total cpu time spent up to now is    12149.9 secs

     total energy              =   -2217.30961536 Ry
     estimated scf accuracy    <       0.00000003 Ry

     total magnetization       =    -0.00 Bohr mag/cell
     absolute magnetization    =     0.01 Bohr mag/cell

     iteration #259     ecut=    90.00 Ry     beta= 0.20
     Davidson diagonalization with overlap
     ethr =  1.96E-11,  avg # of iterations =  1.0

     total cpu time spent up to now is    12180.7 secs

     total energy              =   -2217.30961536 Ry
     estimated scf accuracy    <       0.00000004 Ry

     total magnetization       =    -0.00 Bohr mag/cell
     absolute magnetization    =     0.01 Bohr mag/cell

     iteration #260     ecut=    90.00 Ry     beta= 0.20
     Davidson diagonalization with overlap
     ethr =  1.96E-11,  avg # of iterations =  1.0

     total cpu time spent up to now is    12211.1 secs

     total energy              =   -2217.30961534 Ry
     estimated scf accuracy    <       0.00000002 Ry

     total magnetization       =    -0.00 Bohr mag/cell
     absolute magnetization    =     0.01 Bohr mag/cell

     iteration #261     ecut=    90.00 Ry     beta= 0.20
     Davidson diagonalization with overlap
     ethr =  1.74E-11,  avg # of iterations =  1.1

     total cpu time spent up to now is    12241.6 secs

     total energy              =   -2217.30961535 Ry
     estimated scf accuracy    <       0.00000003 Ry

     total magnetization       =    -0.00 Bohr mag/cell
     absolute magnetization    =     0.01 Bohr mag/cell

     iteration #262     ecut=    90.00 Ry     beta= 0.20
     Davidson diagonalization with overlap
     ethr =  1.74E-11,  avg # of iterations =  1.0

     total cpu time spent up to now is    12272.6 secs

     total energy              =   -2217.30961537 Ry
     estimated scf accuracy    <       0.00000003 Ry

     total magnetization       =    -0.00 Bohr mag/cell
     absolute magnetization    =     0.01 Bohr mag/cell

     iteration #263     ecut=    90.00 Ry     beta= 0.20
     Davidson diagonalization with overlap
     ethr =  1.74E-11,  avg # of iterations =  1.0

     total cpu time spent up to now is    12303.0 secs

     total energy              =   -2217.30961536 Ry
     estimated scf accuracy    <       0.00000003 Ry

     total magnetization       =    -0.00 Bohr mag/cell
     absolute magnetization    =     0.01 Bohr mag/cell

     iteration #264     ecut=    90.00 Ry     beta= 0.20
     Davidson diagonalization with overlap
     ethr =  1.74E-11,  avg # of iterations =  1.0

     total cpu time spent up to now is    12333.6 secs

     total energy              =   -2217.30961536 Ry
     estimated scf accuracy    <       0.00000003 Ry

     total magnetization       =    -0.00 Bohr mag/cell
     absolute magnetization    =     0.01 Bohr mag/cell

     iteration #265     ecut=    90.00 Ry     beta= 0.20
     Davidson diagonalization with overlap
     ethr =  1.74E-11,  avg # of iterations =  1.0

     total cpu time spent up to now is    12364.2 secs

     total energy              =   -2217.30961537 Ry
     estimated scf accuracy    <       0.00000006 Ry

     total magnetization       =    -0.00 Bohr mag/cell
     absolute magnetization    =     0.01 Bohr mag/cell

     iteration #266     ecut=    90.00 Ry     beta= 0.20
     Davidson diagonalization with overlap
     ethr =  1.74E-11,  avg # of iterations =  1.0

     total cpu time spent up to now is    12394.8 secs

     total energy              =   -2217.30961537 Ry
     estimated scf accuracy    <       0.00000004 Ry

     total magnetization       =    -0.00 Bohr mag/cell
     absolute magnetization    =     0.01 Bohr mag/cell

     iteration #267     ecut=    90.00 Ry     beta= 0.20
     Davidson diagonalization with overlap
     ethr =  1.74E-11,  avg # of iterations =  1.0

     total cpu time spent up to now is    12426.1 secs

     total energy              =   -2217.30961537 Ry
     estimated scf accuracy    <       0.00000003 Ry

     total magnetization       =    -0.00 Bohr mag/cell
     absolute magnetization    =     0.01 Bohr mag/cell

     iteration #268     ecut=    90.00 Ry     beta= 0.20
     Davidson diagonalization with overlap
     ethr =  1.74E-11,  avg # of iterations =  1.0

     total cpu time spent up to now is    12457.0 secs

     total energy              =   -2217.30961536 Ry
     estimated scf accuracy    <       0.00000003 Ry

     total magnetization       =    -0.00 Bohr mag/cell
     absolute magnetization    =     0.01 Bohr mag/cell

     iteration #269     ecut=    90.00 Ry     beta= 0.20
     Davidson diagonalization with overlap
     ethr =  1.74E-11,  avg # of iterations =  1.0

     total cpu time spent up to now is    12487.5 secs

     total energy              =   -2217.30961536 Ry
     estimated scf accuracy    <       0.00000002 Ry

     total magnetization       =    -0.00 Bohr mag/cell
     absolute magnetization    =     0.01 Bohr mag/cell

     iteration #270     ecut=    90.00 Ry     beta= 0.20
     Davidson diagonalization with overlap
     ethr =  1.74E-11,  avg # of iterations =  1.0

     total cpu time spent up to now is    12518.0 secs

     total energy              =   -2217.30961535 Ry
     estimated scf accuracy    <       0.00000003 Ry

     total magnetization       =    -0.00 Bohr mag/cell
     absolute magnetization    =     0.01 Bohr mag/cell

     iteration #271     ecut=    90.00 Ry     beta= 0.20
     Davidson diagonalization with overlap
     ethr =  1.74E-11,  avg # of iterations =  1.0

     total cpu time spent up to now is    12548.8 secs

     total energy              =   -2217.30961536 Ry
     estimated scf accuracy    <       0.00000002 Ry

     total magnetization       =    -0.00 Bohr mag/cell
     absolute magnetization    =     0.01 Bohr mag/cell

     iteration #272     ecut=    90.00 Ry     beta= 0.20
     Davidson diagonalization with overlap
     ethr =  1.74E-11,  avg # of iterations =  1.0

     total cpu time spent up to now is    12579.8 secs

     total energy              =   -2217.30961536 Ry
     estimated scf accuracy    <       0.00000002 Ry

     total magnetization       =    -0.00 Bohr mag/cell
     absolute magnetization    =     0.01 Bohr mag/cell

     iteration #273     ecut=    90.00 Ry     beta= 0.20
     Davidson diagonalization with overlap
     ethr =  1.43E-11,  avg # of iterations =  1.0

     total cpu time spent up to now is    12612.8 secs

     total energy              =   -2217.30961536 Ry
     estimated scf accuracy    <       0.00000003 Ry

     total magnetization       =    -0.00 Bohr mag/cell
     absolute magnetization    =     0.01 Bohr mag/cell

     iteration #274     ecut=    90.00 Ry     beta= 0.20
     Davidson diagonalization with overlap
     ethr =  1.43E-11,  avg # of iterations =  1.0

     total cpu time spent up to now is    12643.4 secs

     total energy              =   -2217.30961537 Ry
     estimated scf accuracy    <       0.00000002 Ry

     total magnetization       =    -0.00 Bohr mag/cell
     absolute magnetization    =     0.01 Bohr mag/cell

     iteration #275     ecut=    90.00 Ry     beta= 0.20
     Davidson diagonalization with overlap
     ethr =  1.43E-11,  avg # of iterations =  1.0

     total cpu time spent up to now is    12674.1 secs

     total energy              =   -2217.30961537 Ry
     estimated scf accuracy    <       0.00000008 Ry

     total magnetization       =    -0.00 Bohr mag/cell
     absolute magnetization    =     0.01 Bohr mag/cell

     iteration #276     ecut=    90.00 Ry     beta= 0.20
     Davidson diagonalization with overlap
     ethr =  1.43E-11,  avg # of iterations =  1.0

     total cpu time spent up to now is    12705.2 secs

     total energy              =   -2217.30961537 Ry
     estimated scf accuracy    <       0.00000004 Ry

     total magnetization       =    -0.00 Bohr mag/cell
     absolute magnetization    =     0.01 Bohr mag/cell

     iteration #277     ecut=    90.00 Ry     beta= 0.20
     Davidson diagonalization with overlap
     ethr =  1.43E-11,  avg # of iterations =  1.0

     total cpu time spent up to now is    12736.2 secs

     total energy              =   -2217.30961537 Ry
     estimated scf accuracy    <       0.00000002 Ry

     total magnetization       =    -0.00 Bohr mag/cell
     absolute magnetization    =     0.01 Bohr mag/cell

     iteration #278     ecut=    90.00 Ry     beta= 0.20
     Davidson diagonalization with overlap
     ethr =  1.43E-11,  avg # of iterations =  1.0

     total cpu time spent up to now is    12767.1 secs

     total energy              =   -2217.30961537 Ry
     estimated scf accuracy    <       0.00000003 Ry

     total magnetization       =    -0.00 Bohr mag/cell
     absolute magnetization    =     0.01 Bohr mag/cell

     iteration #279     ecut=    90.00 Ry     beta= 0.20
     Davidson diagonalization with overlap
     ethr =  1.43E-11,  avg # of iterations =  1.0

     total cpu time spent up to now is    12797.9 secs

     total energy              =   -2217.30961537 Ry
     estimated scf accuracy    <       0.00000002 Ry

     total magnetization       =    -0.00 Bohr mag/cell
     absolute magnetization    =     0.01 Bohr mag/cell

     iteration #280     ecut=    90.00 Ry     beta= 0.20
     Davidson diagonalization with overlap
     ethr =  1.43E-11,  avg # of iterations =  1.0

     total cpu time spent up to now is    12829.0 secs

     total energy              =   -2217.30961537 Ry
     estimated scf accuracy    <       0.00000006 Ry

     total magnetization       =    -0.00 Bohr mag/cell
     absolute magnetization    =     0.01 Bohr mag/cell

     iteration #281     ecut=    90.00 Ry     beta= 0.20
     Davidson diagonalization with overlap
     ethr =  1.43E-11,  avg # of iterations =  1.0

     total cpu time spent up to now is    12859.5 secs

     total energy              =   -2217.30961537 Ry
     estimated scf accuracy    <       0.00000003 Ry

     total magnetization       =    -0.00 Bohr mag/cell
     absolute magnetization    =     0.01 Bohr mag/cell

     iteration #282     ecut=    90.00 Ry     beta= 0.20
     Davidson diagonalization with overlap
     ethr =  1.43E-11,  avg # of iterations =  1.0

     total cpu time spent up to now is    12890.4 secs

     total energy              =   -2217.30961537 Ry
     estimated scf accuracy    <       0.00000004 Ry

     total magnetization       =     0.00 Bohr mag/cell
     absolute magnetization    =     0.01 Bohr mag/cell

     iteration #283     ecut=    90.00 Ry     beta= 0.20
     Davidson diagonalization with overlap
