 # File generated with Atomsk by kevin on 2022-03-20 17:48:12
 
           8  atoms
           2  atom types
 
      0.000000000000       4.658979000000  xlo xhi
      0.000000000000       4.635800000000  ylo yhi
      0.000000000000       4.635800000000  zlo zhi
 
Masses
 
            1   0.00000000              # XX
            2   0.00000000              # XX
 
Atoms # atomic
 
         1    4        0.007500073519      -0.006750541778      -0.007291080481
         2    5        2.321562701034       2.311228125130       2.325428602732
         3    4        0.007500073519       2.311149458222       2.310608919519
         4    5        2.321562701034      -0.006671874870       0.007528602732
         5    4        2.336989573519       2.311149458222      -0.007291080481
         6    5        0.007500073519      -0.006750541778       2.310608919519
         7    4        2.336989573519      -0.006750541778       2.310608919519
         8    5        0.007500073519       2.311149458222      -0.007291080481
