 # File generated with Atomsk by kevin on 2022-03-20 17:48:12
 
           8  atoms
           2  atom types
 
      0.000000000000       4.635800000000  xlo xhi
      0.000000000000       4.635800000000  ylo yhi
      0.000000000000       4.635800000000  zlo zhi
      0.000000000000       0.000000000000       0.023179000000  xy xz yz
 
Masses
 
            1   0.00000000              # XX
            2   0.00000000              # XX
 
Atoms # atomic
 
         1    4        0.004769433275      -0.004149361545       0.004086108888
         2    5        2.310699219562       2.330838079552       2.310505331842
         3    4        0.004769433275       2.325340138455       2.321986108888
         4    5        2.310699219562       0.001348579552      -0.007394668158
         5    4        2.322669433275       2.313750638455       0.004086108888
         6    5        0.004769433275       0.007440138455       2.321986108888
         7    4        2.322669433275       0.007440138455       2.321986108888
         8    5        0.004769433275       2.313750638455       0.004086108888
