
     Program PWSCF v.6.7MaX starts on 22Mar2022 at 10:50: 3 

     This program is part of the open-source Quantum ESPRESSO suite
     for quantum simulation of materials; please cite
         "P. Giannozzi et al., J. Phys.:Condens. Matter 21 395502 (2009);
         "P. Giannozzi et al., J. Phys.:Condens. Matter 29 465901 (2017);
          URL http://www.quantum-espresso.org", 
     in publications or presentations arising from this work. More details at
     http://www.quantum-espresso.org/quote

     Parallel version (MPI), running on    16 processors

     MPI processes distributed on     1 nodes
     R & G space division:  proc/nbgrp/npool/nimage =      16
     Reading input from /home/kevin/QE_CoCrFeMnNi/CoCrFeMnNi/Opt/binary/Opt-B1-MnNi/Mix/elastic/Chg_3-B1-MnNi.in

     Current dimensions of program PWSCF are:
     Max number of different atomic species (ntypx) = 10
     Max number of k-points (npk) =  40000
     Max angular momentum in pseudopotentials (lmaxx) =  3

     Subspace diagonalization in iterative solution of the eigenvalue problem:
     a serial algorithm will be used

     Found symmetry operation: I + (  0.0000  0.5000  0.5000)
     This is a supercell, fractional translations are disabled

     Parallelization info
     --------------------
     sticks:   dense  smooth     PW     G-vecs:    dense   smooth      PW
     Min         411     138     38                25304     4874     734
     Max         413     139     39                25307     4877     737
     Sum        6589    2209    621               404889    77997   11761



     bravais-lattice index     =            0
     lattice parameter (alat)  =       8.7604  a.u.
     unit-cell volume          =     675.6733 (a.u.)^3
     number of atoms/cell      =            8
     number of atomic types    =            2
     number of electrons       =       132.00
     number of Kohn-Sham states=           79
     kinetic-energy cutoff     =      90.0000  Ry
     charge density cutoff     =    1080.0000  Ry
     scf convergence threshold =      1.0E-08
     mixing beta               =       0.2000
     number of iterations used =            8  plain     mixing
     energy convergence thresh.=      1.0E-05
     force convergence thresh. =      1.0E-04
     Exchange-correlation=  SLA  PW   PBX  PBC
                           (   1   4   3   4   0   0   0)
     nstep                     =          100


     celldm(1)=   8.760392  celldm(2)=   0.000000  celldm(3)=   0.000000
     celldm(4)=   0.000000  celldm(5)=   0.000000  celldm(6)=   0.000000

     crystal axes: (cart. coord. in units of alat)
               a(1) = (   1.000000   0.000000   0.000000 )  
               a(2) = (   0.000000   1.000000   0.000000 )  
               a(3) = (   0.000000   0.000000   1.005000 )  

     reciprocal axes: (cart. coord. in units 2 pi/alat)
               b(1) = (  1.000000  0.000000  0.000000 )  
               b(2) = (  0.000000  1.000000  0.000000 )  
               b(3) = (  0.000000  0.000000  0.995025 )  


     PseudoPot. # 1 for Ni read from file:
     /opt/QEpot/SSSP_efficiency_pseudos/ni_pbe_v1.4.uspp.F.UPF
     MD5 check sum: 1ee80287db30b12d2bc1f57a5b5d6409
     Pseudo is Ultrasoft + core correction, Zval = 18.0
     Generated by new atomic code, or converted to UPF format
     Using radial grid of  865 points,  6 beta functions with: 
                l(1) =   0
                l(2) =   0
                l(3) =   1
                l(4) =   1
                l(5) =   2
                l(6) =   2
     Q(r) pseudized with 10 coefficients,  rinner =    0.980   0.980   0.980
                                                       0.980   0.980

     PseudoPot. # 2 for Mn read from file:
     /opt/QEpot/SSSP_efficiency_pseudos/mn_pbe_v1.5.uspp.F.UPF
     MD5 check sum: 82ef2b46521d7a7d9e736dc3972e4928
     Pseudo is Ultrasoft + core correction, Zval = 15.0
     Generated by new atomic code, or converted to UPF format
     Using radial grid of  859 points,  6 beta functions with: 
                l(1) =   0
                l(2) =   0
                l(3) =   1
                l(4) =   1
                l(5) =   2
                l(6) =   2
     Q(r) pseudized with  8 coefficients,  rinner =    0.950   0.950   0.950
                                                       0.950   0.950

     atomic species   valence    mass     pseudopotential
        Ni            18.00    58.69300     Ni( 1.00)
        Mn            15.00    54.93800     Mn( 1.00)

     Starting magnetic structure 
     atomic species   magnetization
        Ni           0.000
        Mn           0.000

     No symmetry found



   Cartesian axes

     site n.     atom                  positions (alat units)
         1           Ni  tau(   1) = (  -0.0015496   0.5015650   0.0020055  )
         2           Mn  tau(   2) = (   0.4984504   0.0015650   0.5045055  )
         3           Ni  tau(   3) = (  -0.0015496   0.0015650   0.5045055  )
         4           Mn  tau(   4) = (   0.4984504   0.5015650   0.0020055  )
         5           Ni  tau(   5) = (   0.5000743  -0.0008437   0.0005936  )
         6           Mn  tau(   6) = (  -0.0015496   0.5015650   0.5045055  )
         7           Ni  tau(   7) = (   0.5000743   0.4991563   0.5030936  )
         8           Mn  tau(   8) = (  -0.0015496   0.0015650   0.0020055  )

     number of k points=   112  Gaussian smearing, width (Ry)=  0.0100

     Number of k-points >= 100: set verbosity='high' to print them.

     Dense  grid:   404889 G-vectors     FFT dimensions: (  96,  96,  96)

     Smooth grid:    77997 G-vectors     FFT dimensions: (  54,  54,  54)

     Estimated max dynamical RAM per process >     274.47 MB

     Estimated total dynamical RAM >       4.29 GB

     Check: negative core charge=   -0.000015
     Generating pointlists ...
     new r_m :   0.2053 (alat units)  1.7981 (a.u.) for type    1
     new r_m :   0.2053 (alat units)  1.7981 (a.u.) for type    2

     Initial potential from superposition of free atoms

     starting charge  121.99966, renormalised to  132.00000
     Starting wfcs are  104 randomized atomic wfcs

     total cpu time spent up to now is       18.6 secs

     Self-consistent Calculation

     iteration #  1     ecut=    90.00 Ry     beta= 0.20
     Davidson diagonalization with overlap
     ethr =  1.00E-02,  avg # of iterations =  3.1

     total cpu time spent up to now is       69.1 secs

     total energy              =   -2191.89175672 Ry
     estimated scf accuracy    <     152.34719936 Ry

     total magnetization       =     0.00 Bohr mag/cell
     absolute magnetization    =     0.01 Bohr mag/cell

     iteration #  2     ecut=    90.00 Ry     beta= 0.20
     Davidson diagonalization with overlap
     ethr =  1.00E-02,  avg # of iterations =  4.4

     total cpu time spent up to now is      120.6 secs

     total energy              =   -2215.78201374 Ry
     estimated scf accuracy    <      64.04113498 Ry

     total magnetization       =     0.01 Bohr mag/cell
     absolute magnetization    =     0.02 Bohr mag/cell

     iteration #  3     ecut=    90.00 Ry     beta= 0.20
     Davidson diagonalization with overlap
     ethr =  1.00E-02,  avg # of iterations =  4.1

     total cpu time spent up to now is      163.7 secs

     total energy              =   -2212.50803894 Ry
     estimated scf accuracy    <      13.37998928 Ry

     total magnetization       =    -0.00 Bohr mag/cell
     absolute magnetization    =     0.02 Bohr mag/cell

     iteration #  4     ecut=    90.00 Ry     beta= 0.20
     Davidson diagonalization with overlap
     ethr =  1.00E-02,  avg # of iterations =  4.1

     total cpu time spent up to now is      210.7 secs

     total energy              =   -2209.38222077 Ry
     estimated scf accuracy    <     120.28383698 Ry

     total magnetization       =     0.01 Bohr mag/cell
     absolute magnetization    =     0.01 Bohr mag/cell

     iteration #  5     ecut=    90.00 Ry     beta= 0.20
     Davidson diagonalization with overlap
     ethr =  1.00E-02,  avg # of iterations =  3.3

     total cpu time spent up to now is      251.6 secs

     total energy              =   -2217.27981723 Ry
     estimated scf accuracy    <       4.09097665 Ry

     total magnetization       =     0.00 Bohr mag/cell
     absolute magnetization    =     0.02 Bohr mag/cell

     iteration #  6     ecut=    90.00 Ry     beta= 0.20
     Davidson diagonalization with overlap
     ethr =  3.10E-03,  avg # of iterations =  1.1

     total cpu time spent up to now is      282.5 secs

     total energy              =   -2217.35595377 Ry
     estimated scf accuracy    <       1.69721591 Ry

     total magnetization       =     0.00 Bohr mag/cell
     absolute magnetization    =     0.02 Bohr mag/cell

     iteration #  7     ecut=    90.00 Ry     beta= 0.20
     Davidson diagonalization with overlap
     ethr =  1.29E-03,  avg # of iterations =  1.4

     total cpu time spent up to now is      314.2 secs

     total energy              =   -2217.34239350 Ry
     estimated scf accuracy    <       1.30046982 Ry

     total magnetization       =     0.00 Bohr mag/cell
     absolute magnetization    =     0.01 Bohr mag/cell

     iteration #  8     ecut=    90.00 Ry     beta= 0.20
     Davidson diagonalization with overlap
     ethr =  9.85E-04,  avg # of iterations =  1.0

     total cpu time spent up to now is      344.2 secs

     total energy              =   -2217.33203659 Ry
     estimated scf accuracy    <       0.78973487 Ry

     total magnetization       =     0.00 Bohr mag/cell
     absolute magnetization    =     0.01 Bohr mag/cell

     iteration #  9     ecut=    90.00 Ry     beta= 0.20
     Davidson diagonalization with overlap
     ethr =  5.98E-04,  avg # of iterations =  1.0

     total cpu time spent up to now is      374.1 secs

     total energy              =   -2217.32604157 Ry
     estimated scf accuracy    <       0.58628545 Ry

     total magnetization       =     0.00 Bohr mag/cell
     absolute magnetization    =     0.01 Bohr mag/cell

     iteration # 10     ecut=    90.00 Ry     beta= 0.20
     Davidson diagonalization with overlap
     ethr =  4.44E-04,  avg # of iterations =  1.0

     total cpu time spent up to now is      404.5 secs

     total energy              =   -2217.27646584 Ry
     estimated scf accuracy    <       0.41263469 Ry

     total magnetization       =     0.00 Bohr mag/cell
     absolute magnetization    =     0.02 Bohr mag/cell

     iteration # 11     ecut=    90.00 Ry     beta= 0.20
     Davidson diagonalization with overlap
     ethr =  3.13E-04,  avg # of iterations =  1.2

     total cpu time spent up to now is      435.3 secs

     total energy              =   -2217.29838711 Ry
     estimated scf accuracy    <       0.09413219 Ry

     total magnetization       =     0.00 Bohr mag/cell
     absolute magnetization    =     0.02 Bohr mag/cell

     iteration # 12     ecut=    90.00 Ry     beta= 0.20
     Davidson diagonalization with overlap
     ethr =  7.13E-05,  avg # of iterations =  1.8

     total cpu time spent up to now is      467.6 secs

     total energy              =   -2217.29751796 Ry
     estimated scf accuracy    <       0.08610967 Ry

     total magnetization       =     0.00 Bohr mag/cell
     absolute magnetization    =     0.02 Bohr mag/cell

     iteration # 13     ecut=    90.00 Ry     beta= 0.20
     Davidson diagonalization with overlap
     ethr =  6.52E-05,  avg # of iterations =  1.6

     total cpu time spent up to now is      499.9 secs

     total energy              =   -2217.31332985 Ry
     estimated scf accuracy    <       0.14069775 Ry

     total magnetization       =     0.01 Bohr mag/cell
     absolute magnetization    =     0.04 Bohr mag/cell

     iteration # 14     ecut=    90.00 Ry     beta= 0.20
     Davidson diagonalization with overlap
     ethr =  6.52E-05,  avg # of iterations =  1.0

     total cpu time spent up to now is      530.2 secs

     total energy              =   -2217.30512796 Ry
     estimated scf accuracy    <       0.10230036 Ry

     total magnetization       =     0.01 Bohr mag/cell
     absolute magnetization    =     0.06 Bohr mag/cell

     iteration # 15     ecut=    90.00 Ry     beta= 0.20
     Davidson diagonalization with overlap
     ethr =  6.52E-05,  avg # of iterations =  1.0

     total cpu time spent up to now is      561.0 secs

     total energy              =   -2217.30914713 Ry
     estimated scf accuracy    <       0.03419953 Ry

     total magnetization       =     0.01 Bohr mag/cell
     absolute magnetization    =     0.06 Bohr mag/cell

     iteration # 16     ecut=    90.00 Ry     beta= 0.20
     Davidson diagonalization with overlap
     ethr =  2.59E-05,  avg # of iterations =  1.3

     total cpu time spent up to now is      592.7 secs

     total energy              =   -2217.30959879 Ry
     estimated scf accuracy    <       0.00036069 Ry

     total magnetization       =     0.02 Bohr mag/cell
     absolute magnetization    =     0.07 Bohr mag/cell

     iteration # 17     ecut=    90.00 Ry     beta= 0.20
     Davidson diagonalization with overlap
     ethr =  2.73E-07,  avg # of iterations =  2.6

     total cpu time spent up to now is      630.6 secs

     total energy              =   -2217.30961585 Ry
     estimated scf accuracy    <       0.00156682 Ry

     total magnetization       =     0.02 Bohr mag/cell
     absolute magnetization    =     0.08 Bohr mag/cell

     iteration # 18     ecut=    90.00 Ry     beta= 0.20
     Davidson diagonalization with overlap
     ethr =  2.73E-07,  avg # of iterations =  1.0

     total cpu time spent up to now is      661.2 secs

     total energy              =   -2217.30961884 Ry
     estimated scf accuracy    <       0.00013953 Ry

     total magnetization       =     0.02 Bohr mag/cell
     absolute magnetization    =     0.07 Bohr mag/cell

     iteration # 19     ecut=    90.00 Ry     beta= 0.20
     Davidson diagonalization with overlap
     ethr =  1.06E-07,  avg # of iterations =  1.9

     total cpu time spent up to now is      695.2 secs

     total energy              =   -2217.30963107 Ry
     estimated scf accuracy    <       0.00034136 Ry

     total magnetization       =     0.03 Bohr mag/cell
     absolute magnetization    =     0.11 Bohr mag/cell

     iteration # 20     ecut=    90.00 Ry     beta= 0.20
     Davidson diagonalization with overlap
     ethr =  1.06E-07,  avg # of iterations =  1.0

     total cpu time spent up to now is      725.6 secs

     total energy              =   -2217.30963074 Ry
     estimated scf accuracy    <       0.00005585 Ry

     total magnetization       =     0.03 Bohr mag/cell
     absolute magnetization    =     0.11 Bohr mag/cell

     iteration # 21     ecut=    90.00 Ry     beta= 0.20
     Davidson diagonalization with overlap
     ethr =  4.23E-08,  avg # of iterations =  1.0

     total cpu time spent up to now is      756.3 secs

     total energy              =   -2217.30962623 Ry
     estimated scf accuracy    <       0.00006432 Ry

     total magnetization       =     0.02 Bohr mag/cell
     absolute magnetization    =     0.10 Bohr mag/cell

     iteration # 22     ecut=    90.00 Ry     beta= 0.20
     Davidson diagonalization with overlap
     ethr =  4.23E-08,  avg # of iterations =  1.0

     total cpu time spent up to now is      786.3 secs

     total energy              =   -2217.30961754 Ry
     estimated scf accuracy    <       0.00005773 Ry

     total magnetization       =     0.02 Bohr mag/cell
     absolute magnetization    =     0.08 Bohr mag/cell

     iteration # 23     ecut=    90.00 Ry     beta= 0.20
     Davidson diagonalization with overlap
     ethr =  4.23E-08,  avg # of iterations =  1.0

     total cpu time spent up to now is      816.7 secs

     total energy              =   -2217.30961862 Ry
     estimated scf accuracy    <       0.00005368 Ry

     total magnetization       =     0.01 Bohr mag/cell
     absolute magnetization    =     0.05 Bohr mag/cell

     iteration # 24     ecut=    90.00 Ry     beta= 0.20
     Davidson diagonalization with overlap
     ethr =  4.07E-08,  avg # of iterations =  1.9

     total cpu time spent up to now is      850.6 secs

     total energy              =   -2217.30960578 Ry
     estimated scf accuracy    <       0.00021529 Ry

     total magnetization       =     0.02 Bohr mag/cell
     absolute magnetization    =     0.07 Bohr mag/cell

     iteration # 25     ecut=    90.00 Ry     beta= 0.20
     Davidson diagonalization with overlap
     ethr =  4.07E-08,  avg # of iterations =  1.0

     total cpu time spent up to now is      881.2 secs

     total energy              =   -2217.30961212 Ry
     estimated scf accuracy    <       0.00045137 Ry

     total magnetization       =     0.00 Bohr mag/cell
     absolute magnetization    =     0.02 Bohr mag/cell

     iteration # 26     ecut=    90.00 Ry     beta= 0.20
     Davidson diagonalization with overlap
     ethr =  4.07E-08,  avg # of iterations =  1.0

     total cpu time spent up to now is      911.7 secs

     total energy              =   -2217.30961710 Ry
     estimated scf accuracy    <       0.00004483 Ry

     total magnetization       =     0.00 Bohr mag/cell
     absolute magnetization    =     0.03 Bohr mag/cell

     iteration # 27     ecut=    90.00 Ry     beta= 0.20
     Davidson diagonalization with overlap
     ethr =  3.40E-08,  avg # of iterations =  1.0

     total cpu time spent up to now is      942.2 secs

     total energy              =   -2217.30961612 Ry
     estimated scf accuracy    <       0.00014954 Ry

     total magnetization       =     0.00 Bohr mag/cell
     absolute magnetization    =     0.02 Bohr mag/cell

     iteration # 28     ecut=    90.00 Ry     beta= 0.20
     Davidson diagonalization with overlap
     ethr =  3.40E-08,  avg # of iterations =  1.0

     total cpu time spent up to now is      972.5 secs

     total energy              =   -2217.30961777 Ry
     estimated scf accuracy    <       0.00004036 Ry

     total magnetization       =    -0.00 Bohr mag/cell
     absolute magnetization    =     0.02 Bohr mag/cell

     iteration # 29     ecut=    90.00 Ry     beta= 0.20
     Davidson diagonalization with overlap
     ethr =  3.06E-08,  avg # of iterations =  1.0

     total cpu time spent up to now is     1002.6 secs

     total energy              =   -2217.30961659 Ry
     estimated scf accuracy    <       0.00012645 Ry

     total magnetization       =    -0.01 Bohr mag/cell
     absolute magnetization    =     0.01 Bohr mag/cell

     iteration # 30     ecut=    90.00 Ry     beta= 0.20
     Davidson diagonalization with overlap
     ethr =  3.06E-08,  avg # of iterations =  1.0

     total cpu time spent up to now is     1033.0 secs

     total energy              =   -2217.30961901 Ry
     estimated scf accuracy    <       0.00001627 Ry

     total magnetization       =    -0.01 Bohr mag/cell
     absolute magnetization    =     0.01 Bohr mag/cell

     iteration # 31     ecut=    90.00 Ry     beta= 0.20
     Davidson diagonalization with overlap
     ethr =  1.23E-08,  avg # of iterations =  1.0

     total cpu time spent up to now is     1063.7 secs

     total energy              =   -2217.30961919 Ry
     estimated scf accuracy    <       0.00001006 Ry

     total magnetization       =    -0.01 Bohr mag/cell
     absolute magnetization    =     0.02 Bohr mag/cell

     iteration # 32     ecut=    90.00 Ry     beta= 0.20
     Davidson diagonalization with overlap
     ethr =  7.62E-09,  avg # of iterations =  1.0

     total cpu time spent up to now is     1094.2 secs

     total energy              =   -2217.30961983 Ry
     estimated scf accuracy    <       0.00000506 Ry

     total magnetization       =    -0.02 Bohr mag/cell
     absolute magnetization    =     0.02 Bohr mag/cell

     iteration # 33     ecut=    90.00 Ry     beta= 0.20
     Davidson diagonalization with overlap
     ethr =  3.84E-09,  avg # of iterations =  1.0

     total cpu time spent up to now is     1124.4 secs

     total energy              =   -2217.30961979 Ry
     estimated scf accuracy    <       0.00000461 Ry

     total magnetization       =    -0.02 Bohr mag/cell
     absolute magnetization    =     0.02 Bohr mag/cell

     iteration # 34     ecut=    90.00 Ry     beta= 0.20
     Davidson diagonalization with overlap
     ethr =  3.49E-09,  avg # of iterations =  1.0

     total cpu time spent up to now is     1154.4 secs

     total energy              =   -2217.30961986 Ry
     estimated scf accuracy    <       0.00001231 Ry

     total magnetization       =    -0.02 Bohr mag/cell
     absolute magnetization    =     0.02 Bohr mag/cell

     iteration # 35     ecut=    90.00 Ry     beta= 0.20
     Davidson diagonalization with overlap
     ethr =  3.49E-09,  avg # of iterations =  1.0

     total cpu time spent up to now is     1184.5 secs

     total energy              =   -2217.30962019 Ry
     estimated scf accuracy    <       0.00001093 Ry

     total magnetization       =    -0.02 Bohr mag/cell
     absolute magnetization    =     0.03 Bohr mag/cell

     iteration # 36     ecut=    90.00 Ry     beta= 0.20
     Davidson diagonalization with overlap
     ethr =  3.49E-09,  avg # of iterations =  1.0

     total cpu time spent up to now is     1215.8 secs

     total energy              =   -2217.30962018 Ry
     estimated scf accuracy    <       0.00000480 Ry

     total magnetization       =    -0.02 Bohr mag/cell
     absolute magnetization    =     0.03 Bohr mag/cell

     iteration # 37     ecut=    90.00 Ry     beta= 0.20
     Davidson diagonalization with overlap
     ethr =  3.49E-09,  avg # of iterations =  1.0

     total cpu time spent up to now is     1246.3 secs

     total energy              =   -2217.30962003 Ry
     estimated scf accuracy    <       0.00000604 Ry

     total magnetization       =    -0.02 Bohr mag/cell
     absolute magnetization    =     0.03 Bohr mag/cell

     iteration # 38     ecut=    90.00 Ry     beta= 0.20
     Davidson diagonalization with overlap
     ethr =  3.49E-09,  avg # of iterations =  1.0

     total cpu time spent up to now is     1276.8 secs

     total energy              =   -2217.30961858 Ry
     estimated scf accuracy    <       0.00001364 Ry

     total magnetization       =    -0.02 Bohr mag/cell
     absolute magnetization    =     0.02 Bohr mag/cell

     iteration # 39     ecut=    90.00 Ry     beta= 0.20
     Davidson diagonalization with overlap
     ethr =  3.49E-09,  avg # of iterations =  1.0

     total cpu time spent up to now is     1306.7 secs

     total energy              =   -2217.30961877 Ry
     estimated scf accuracy    <       0.00002073 Ry

     total magnetization       =    -0.01 Bohr mag/cell
     absolute magnetization    =     0.01 Bohr mag/cell

     iteration # 40     ecut=    90.00 Ry     beta= 0.20
     Davidson diagonalization with overlap
     ethr =  3.49E-09,  avg # of iterations =  1.0

     total cpu time spent up to now is     1336.8 secs

     total energy              =   -2217.30961875 Ry
     estimated scf accuracy    <       0.00001197 Ry

     total magnetization       =    -0.01 Bohr mag/cell
     absolute magnetization    =     0.01 Bohr mag/cell

     iteration # 41     ecut=    90.00 Ry     beta= 0.20
     Davidson diagonalization with overlap
     ethr =  3.49E-09,  avg # of iterations =  1.0

     total cpu time spent up to now is     1367.4 secs

     total energy              =   -2217.30961887 Ry
     estimated scf accuracy    <       0.00000308 Ry

     total magnetization       =    -0.00 Bohr mag/cell
     absolute magnetization    =     0.01 Bohr mag/cell

     iteration # 42     ecut=    90.00 Ry     beta= 0.20
     Davidson diagonalization with overlap
     ethr =  2.34E-09,  avg # of iterations =  1.0

     total cpu time spent up to now is     1397.7 secs

     total energy              =   -2217.30961905 Ry
     estimated scf accuracy    <       0.00000141 Ry

     total magnetization       =    -0.00 Bohr mag/cell
     absolute magnetization    =     0.01 Bohr mag/cell

     iteration # 43     ecut=    90.00 Ry     beta= 0.20
     Davidson diagonalization with overlap
     ethr =  1.07E-09,  avg # of iterations =  1.0

     total cpu time spent up to now is     1428.0 secs

     total energy              =   -2217.30961911 Ry
     estimated scf accuracy    <       0.00000092 Ry

     total magnetization       =     0.00 Bohr mag/cell
     absolute magnetization    =     0.01 Bohr mag/cell

     iteration # 44     ecut=    90.00 Ry     beta= 0.20
     Davidson diagonalization with overlap
     ethr =  6.99E-10,  avg # of iterations =  1.0

     total cpu time spent up to now is     1458.4 secs

     total energy              =   -2217.30961903 Ry
     estimated scf accuracy    <       0.00000089 Ry

     total magnetization       =    -0.00 Bohr mag/cell
     absolute magnetization    =     0.01 Bohr mag/cell

     iteration # 45     ecut=    90.00 Ry     beta= 0.20
     Davidson diagonalization with overlap
     ethr =  6.76E-10,  avg # of iterations =  1.1

     total cpu time spent up to now is     1489.8 secs

     total energy              =   -2217.30961898 Ry
     estimated scf accuracy    <       0.00000920 Ry

     total magnetization       =     0.00 Bohr mag/cell
     absolute magnetization    =     0.01 Bohr mag/cell

     iteration # 46     ecut=    90.00 Ry     beta= 0.20
     Davidson diagonalization with overlap
     ethr =  6.76E-10,  avg # of iterations =  1.0

     total cpu time spent up to now is     1519.9 secs

     total energy              =   -2217.30961908 Ry
     estimated scf accuracy    <       0.00000312 Ry

     total magnetization       =     0.00 Bohr mag/cell
     absolute magnetization    =     0.01 Bohr mag/cell

     iteration # 47     ecut=    90.00 Ry     beta= 0.20
     Davidson diagonalization with overlap
     ethr =  6.76E-10,  avg # of iterations =  1.0

     total cpu time spent up to now is     1550.2 secs

     total energy              =   -2217.30961910 Ry
     estimated scf accuracy    <       0.00000389 Ry

     total magnetization       =     0.00 Bohr mag/cell
     absolute magnetization    =     0.01 Bohr mag/cell

     iteration # 48     ecut=    90.00 Ry     beta= 0.20
     Davidson diagonalization with overlap
     ethr =  6.76E-10,  avg # of iterations =  1.0

     total cpu time spent up to now is     1580.1 secs

     total energy              =   -2217.30961915 Ry
     estimated scf accuracy    <       0.00000304 Ry

     total magnetization       =     0.00 Bohr mag/cell
     absolute magnetization    =     0.01 Bohr mag/cell

     iteration # 49     ecut=    90.00 Ry     beta= 0.20
     Davidson diagonalization with overlap
     ethr =  6.76E-10,  avg # of iterations =  1.0

     total cpu time spent up to now is     1610.0 secs

     total energy              =   -2217.30961919 Ry
     estimated scf accuracy    <       0.00000041 Ry

     total magnetization       =     0.00 Bohr mag/cell
     absolute magnetization    =     0.01 Bohr mag/cell

     iteration # 50     ecut=    90.00 Ry     beta= 0.20
     Davidson diagonalization with overlap
     ethr =  3.13E-10,  avg # of iterations =  1.0

     total cpu time spent up to now is     1639.8 secs

     total energy              =   -2217.30961917 Ry
     estimated scf accuracy    <       0.00000022 Ry

     total magnetization       =     0.00 Bohr mag/cell
     absolute magnetization    =     0.01 Bohr mag/cell

     iteration # 51     ecut=    90.00 Ry     beta= 0.20
     Davidson diagonalization with overlap
     ethr =  1.68E-10,  avg # of iterations =  1.0

     total cpu time spent up to now is     1670.5 secs

     total energy              =   -2217.30961918 Ry
     estimated scf accuracy    <       0.00000020 Ry

     total magnetization       =     0.00 Bohr mag/cell
     absolute magnetization    =     0.01 Bohr mag/cell

     iteration # 52     ecut=    90.00 Ry     beta= 0.20
     Davidson diagonalization with overlap
     ethr =  1.52E-10,  avg # of iterations =  1.0

     total cpu time spent up to now is     1700.7 secs

     total energy              =   -2217.30961915 Ry
     estimated scf accuracy    <       0.00000024 Ry

     total magnetization       =     0.00 Bohr mag/cell
     absolute magnetization    =     0.01 Bohr mag/cell

     iteration # 53     ecut=    90.00 Ry     beta= 0.20
     Davidson diagonalization with overlap
     ethr =  1.52E-10,  avg # of iterations =  1.0

     total cpu time spent up to now is     1731.1 secs

     total energy              =   -2217.30961916 Ry
     estimated scf accuracy    <       0.00000011 Ry

     total magnetization       =    -0.00 Bohr mag/cell
     absolute magnetization    =     0.01 Bohr mag/cell

     iteration # 54     ecut=    90.00 Ry     beta= 0.20
     Davidson diagonalization with overlap
     ethr =  8.15E-11,  avg # of iterations =  1.0

     total cpu time spent up to now is     1761.1 secs

     total energy              =   -2217.30961917 Ry
     estimated scf accuracy    <       0.00000010 Ry

     total magnetization       =    -0.00 Bohr mag/cell
     absolute magnetization    =     0.01 Bohr mag/cell

     iteration # 55     ecut=    90.00 Ry     beta= 0.20
     Davidson diagonalization with overlap
     ethr =  7.75E-11,  avg # of iterations =  1.0

     total cpu time spent up to now is     1791.7 secs

     total energy              =   -2217.30961916 Ry
     estimated scf accuracy    <       0.00000044 Ry

     total magnetization       =    -0.00 Bohr mag/cell
     absolute magnetization    =     0.01 Bohr mag/cell

     iteration # 56     ecut=    90.00 Ry     beta= 0.20
     Davidson diagonalization with overlap
     ethr =  7.75E-11,  avg # of iterations =  1.0

     total cpu time spent up to now is     1823.9 secs

     total energy              =   -2217.30961917 Ry
     estimated scf accuracy    <       0.00000011 Ry

     total magnetization       =    -0.00 Bohr mag/cell
     absolute magnetization    =     0.01 Bohr mag/cell

     iteration # 57     ecut=    90.00 Ry     beta= 0.20
     Davidson diagonalization with overlap
     ethr =  7.75E-11,  avg # of iterations =  1.0

     total cpu time spent up to now is     1854.2 secs

     total energy              =   -2217.30961916 Ry
     estimated scf accuracy    <       0.00000012 Ry

     total magnetization       =    -0.00 Bohr mag/cell
     absolute magnetization    =     0.01 Bohr mag/cell

     iteration # 58     ecut=    90.00 Ry     beta= 0.20
     Davidson diagonalization with overlap
     ethr =  7.75E-11,  avg # of iterations =  1.0

     total cpu time spent up to now is     1884.5 secs

     total energy              =   -2217.30961918 Ry
     estimated scf accuracy    <       0.00000011 Ry

     total magnetization       =    -0.00 Bohr mag/cell
     absolute magnetization    =     0.01 Bohr mag/cell

     iteration # 59     ecut=    90.00 Ry     beta= 0.20
     Davidson diagonalization with overlap
     ethr =  7.75E-11,  avg # of iterations =  1.0

     total cpu time spent up to now is     1914.9 secs

     total energy              =   -2217.30961919 Ry
     estimated scf accuracy    <       0.00000038 Ry

     total magnetization       =    -0.00 Bohr mag/cell
     absolute magnetization    =     0.01 Bohr mag/cell

     iteration # 60     ecut=    90.00 Ry     beta= 0.20
     Davidson diagonalization with overlap
     ethr =  7.75E-11,  avg # of iterations =  1.0

     total cpu time spent up to now is     1945.3 secs

     total energy              =   -2217.30961918 Ry
     estimated scf accuracy    <       0.00000032 Ry

     total magnetization       =    -0.00 Bohr mag/cell
     absolute magnetization    =     0.01 Bohr mag/cell

     iteration # 61     ecut=    90.00 Ry     beta= 0.20
     Davidson diagonalization with overlap
     ethr =  7.75E-11,  avg # of iterations =  1.0

     total cpu time spent up to now is     1975.5 secs

     total energy              =   -2217.30961917 Ry
     estimated scf accuracy    <       0.00000025 Ry

     total magnetization       =    -0.00 Bohr mag/cell
     absolute magnetization    =     0.01 Bohr mag/cell

     iteration # 62     ecut=    90.00 Ry     beta= 0.20
     Davidson diagonalization with overlap
     ethr =  7.75E-11,  avg # of iterations =  1.0

     total cpu time spent up to now is     2005.2 secs

     total energy              =   -2217.30961916 Ry
     estimated scf accuracy    <       0.00000026 Ry

     total magnetization       =    -0.00 Bohr mag/cell
     absolute magnetization    =     0.01 Bohr mag/cell

     iteration # 63     ecut=    90.00 Ry     beta= 0.20
     Davidson diagonalization with overlap
     ethr =  7.75E-11,  avg # of iterations =  1.0

     total cpu time spent up to now is     2035.3 secs

     total energy              =   -2217.30961915 Ry
     estimated scf accuracy    <       0.00000045 Ry

     total magnetization       =    -0.00 Bohr mag/cell
     absolute magnetization    =     0.01 Bohr mag/cell

     iteration # 64     ecut=    90.00 Ry     beta= 0.20
     Davidson diagonalization with overlap
     ethr =  7.75E-11,  avg # of iterations =  1.0

     total cpu time spent up to now is     2065.8 secs

     total energy              =   -2217.30961915 Ry
     estimated scf accuracy    <       0.00000030 Ry

     total magnetization       =    -0.00 Bohr mag/cell
     absolute magnetization    =     0.01 Bohr mag/cell

     iteration # 65     ecut=    90.00 Ry     beta= 0.20
     Davidson diagonalization with overlap
     ethr =  7.75E-11,  avg # of iterations =  1.0

     total cpu time spent up to now is     2095.9 secs

     total energy              =   -2217.30961917 Ry
     estimated scf accuracy    <       0.00000024 Ry

     total magnetization       =    -0.00 Bohr mag/cell
     absolute magnetization    =     0.01 Bohr mag/cell

     iteration # 66     ecut=    90.00 Ry     beta= 0.20
     Davidson diagonalization with overlap
     ethr =  7.75E-11,  avg # of iterations =  1.0

     total cpu time spent up to now is     2126.1 secs

     total energy              =   -2217.30961919 Ry
     estimated scf accuracy    <       0.00000014 Ry

     total magnetization       =    -0.00 Bohr mag/cell
     absolute magnetization    =     0.01 Bohr mag/cell

     iteration # 67     ecut=    90.00 Ry     beta= 0.20
     Davidson diagonalization with overlap
     ethr =  7.75E-11,  avg # of iterations =  1.0

     total cpu time spent up to now is     2156.0 secs

     total energy              =   -2217.30961919 Ry
     estimated scf accuracy    <       0.00000025 Ry

     total magnetization       =    -0.00 Bohr mag/cell
     absolute magnetization    =     0.01 Bohr mag/cell

     iteration # 68     ecut=    90.00 Ry     beta= 0.20
     Davidson diagonalization with overlap
     ethr =  7.75E-11,  avg # of iterations =  1.0

     total cpu time spent up to now is     2185.6 secs

     total energy              =   -2217.30961918 Ry
     estimated scf accuracy    <       0.00000012 Ry

     total magnetization       =    -0.00 Bohr mag/cell
     absolute magnetization    =     0.01 Bohr mag/cell

     iteration # 69     ecut=    90.00 Ry     beta= 0.20
     Davidson diagonalization with overlap
     ethr =  7.75E-11,  avg # of iterations =  1.0

     total cpu time spent up to now is     2215.8 secs

     total energy              =   -2217.30961918 Ry
     estimated scf accuracy    <       0.00000014 Ry

     total magnetization       =    -0.00 Bohr mag/cell
     absolute magnetization    =     0.01 Bohr mag/cell

     iteration # 70     ecut=    90.00 Ry     beta= 0.20
     Davidson diagonalization with overlap
     ethr =  7.75E-11,  avg # of iterations =  1.0

     total cpu time spent up to now is     2245.6 secs

     total energy              =   -2217.30961918 Ry
     estimated scf accuracy    <       0.00000022 Ry

     total magnetization       =    -0.00 Bohr mag/cell
     absolute magnetization    =     0.01 Bohr mag/cell

     iteration # 71     ecut=    90.00 Ry     beta= 0.20
     Davidson diagonalization with overlap
     ethr =  7.75E-11,  avg # of iterations =  1.0

     total cpu time spent up to now is     2275.9 secs

     total energy              =   -2217.30961919 Ry
     estimated scf accuracy    <       0.00000017 Ry

     total magnetization       =    -0.00 Bohr mag/cell
     absolute magnetization    =     0.01 Bohr mag/cell

     iteration # 72     ecut=    90.00 Ry     beta= 0.20
     Davidson diagonalization with overlap
     ethr =  7.75E-11,  avg # of iterations =  1.0

     total cpu time spent up to now is     2305.9 secs

     total energy              =   -2217.30961918 Ry
     estimated scf accuracy    <       0.00000015 Ry

     total magnetization       =    -0.00 Bohr mag/cell
     absolute magnetization    =     0.01 Bohr mag/cell

     iteration # 73     ecut=    90.00 Ry     beta= 0.20
     Davidson diagonalization with overlap
     ethr =  7.75E-11,  avg # of iterations =  1.0

     total cpu time spent up to now is     2336.4 secs

     total energy              =   -2217.30961919 Ry
     estimated scf accuracy    <       0.00000031 Ry

     total magnetization       =    -0.00 Bohr mag/cell
     absolute magnetization    =     0.01 Bohr mag/cell

     iteration # 74     ecut=    90.00 Ry     beta= 0.20
     Davidson diagonalization with overlap
     ethr =  7.75E-11,  avg # of iterations =  1.1

     total cpu time spent up to now is     2366.4 secs

     total energy              =   -2217.30961920 Ry
     estimated scf accuracy    <       0.00000039 Ry

     total magnetization       =    -0.00 Bohr mag/cell
     absolute magnetization    =     0.01 Bohr mag/cell

     iteration # 75     ecut=    90.00 Ry     beta= 0.20
     Davidson diagonalization with overlap
     ethr =  7.75E-11,  avg # of iterations =  1.0

     total cpu time spent up to now is     2396.4 secs

     total energy              =   -2217.30961921 Ry
     estimated scf accuracy    <       0.00000030 Ry

     total magnetization       =    -0.00 Bohr mag/cell
     absolute magnetization    =     0.01 Bohr mag/cell

     iteration # 76     ecut=    90.00 Ry     beta= 0.20
     Davidson diagonalization with overlap
     ethr =  7.75E-11,  avg # of iterations =  1.0

     total cpu time spent up to now is     2428.1 secs

     total energy              =   -2217.30961922 Ry
     estimated scf accuracy    <       0.00000018 Ry

     total magnetization       =    -0.00 Bohr mag/cell
     absolute magnetization    =     0.01 Bohr mag/cell

     iteration # 77     ecut=    90.00 Ry     beta= 0.20
     Davidson diagonalization with overlap
     ethr =  7.75E-11,  avg # of iterations =  1.0

     total cpu time spent up to now is     2457.7 secs

     total energy              =   -2217.30961921 Ry
     estimated scf accuracy    <       0.00000037 Ry

     total magnetization       =    -0.00 Bohr mag/cell
     absolute magnetization    =     0.01 Bohr mag/cell

     iteration # 78     ecut=    90.00 Ry     beta= 0.20
     Davidson diagonalization with overlap
     ethr =  7.75E-11,  avg # of iterations =  1.0

     total cpu time spent up to now is     2487.8 secs

     total energy              =   -2217.30961919 Ry
     estimated scf accuracy    <       0.00000030 Ry

     total magnetization       =    -0.00 Bohr mag/cell
     absolute magnetization    =     0.01 Bohr mag/cell

     iteration # 79     ecut=    90.00 Ry     beta= 0.20
     Davidson diagonalization with overlap
     ethr =  7.75E-11,  avg # of iterations =  1.0

     total cpu time spent up to now is     2517.6 secs

     total energy              =   -2217.30961921 Ry
     estimated scf accuracy    <       0.00000037 Ry

     total magnetization       =    -0.00 Bohr mag/cell
     absolute magnetization    =     0.01 Bohr mag/cell

     iteration # 80     ecut=    90.00 Ry     beta= 0.20
     Davidson diagonalization with overlap
     ethr =  7.75E-11,  avg # of iterations =  1.0

     total cpu time spent up to now is     2547.6 secs

     total energy              =   -2217.30961921 Ry
     estimated scf accuracy    <       0.00000032 Ry

     total magnetization       =    -0.00 Bohr mag/cell
     absolute magnetization    =     0.01 Bohr mag/cell

     iteration # 81     ecut=    90.00 Ry     beta= 0.20
     Davidson diagonalization with overlap
     ethr =  7.75E-11,  avg # of iterations =  1.0

     total cpu time spent up to now is     2577.1 secs

     total energy              =   -2217.30961922 Ry
     estimated scf accuracy    <       0.00000033 Ry

     total magnetization       =    -0.00 Bohr mag/cell
     absolute magnetization    =     0.01 Bohr mag/cell

     iteration # 82     ecut=    90.00 Ry     beta= 0.20
     Davidson diagonalization with overlap
     ethr =  7.75E-11,  avg # of iterations =  1.0

     total cpu time spent up to now is     2607.0 secs

     total energy              =   -2217.30961924 Ry
     estimated scf accuracy    <       0.00000033 Ry

     total magnetization       =    -0.00 Bohr mag/cell
     absolute magnetization    =     0.01 Bohr mag/cell

     iteration # 83     ecut=    90.00 Ry     beta= 0.20
     Davidson diagonalization with overlap
     ethr =  7.75E-11,  avg # of iterations =  1.0

     total cpu time spent up to now is     2637.3 secs

     total energy              =   -2217.30961924 Ry
     estimated scf accuracy    <       0.00000026 Ry

     total magnetization       =    -0.00 Bohr mag/cell
     absolute magnetization    =     0.01 Bohr mag/cell

     iteration # 84     ecut=    90.00 Ry     beta= 0.20
     Davidson diagonalization with overlap
     ethr =  7.75E-11,  avg # of iterations =  1.0

     total cpu time spent up to now is     2667.1 secs

     total energy              =   -2217.30961921 Ry
     estimated scf accuracy    <       0.00000068 Ry

     total magnetization       =    -0.00 Bohr mag/cell
     absolute magnetization    =     0.01 Bohr mag/cell

     iteration # 85     ecut=    90.00 Ry     beta= 0.20
     Davidson diagonalization with overlap
     ethr =  7.75E-11,  avg # of iterations =  1.1

     total cpu time spent up to now is     2697.8 secs

     total energy              =   -2217.30961913 Ry
     estimated scf accuracy    <       0.00000094 Ry

     total magnetization       =    -0.00 Bohr mag/cell
     absolute magnetization    =     0.01 Bohr mag/cell

     iteration # 86     ecut=    90.00 Ry     beta= 0.20
     Davidson diagonalization with overlap
     ethr =  7.75E-11,  avg # of iterations =  2.0

     total cpu time spent up to now is     2731.3 secs

     total energy              =   -2217.30961915 Ry
     estimated scf accuracy    <       0.00000221 Ry

     total magnetization       =    -0.00 Bohr mag/cell
     absolute magnetization    =     0.01 Bohr mag/cell

     iteration # 87     ecut=    90.00 Ry     beta= 0.20
     Davidson diagonalization with overlap
     ethr =  7.75E-11,  avg # of iterations =  2.0

     total cpu time spent up to now is     2765.4 secs

     total energy              =   -2217.30961918 Ry
     estimated scf accuracy    <       0.00000144 Ry

     total magnetization       =     0.00 Bohr mag/cell
     absolute magnetization    =     0.01 Bohr mag/cell

     iteration # 88     ecut=    90.00 Ry     beta= 0.20
     Davidson diagonalization with overlap
     ethr =  7.75E-11,  avg # of iterations =  1.1

     total cpu time spent up to now is     2796.3 secs

     total energy              =   -2217.30961923 Ry
     estimated scf accuracy    <       0.00000027 Ry

     total magnetization       =     0.00 Bohr mag/cell
     absolute magnetization    =     0.01 Bohr mag/cell

     iteration # 89     ecut=    90.00 Ry     beta= 0.20
     Davidson diagonalization with overlap
     ethr =  7.75E-11,  avg # of iterations =  1.0

     total cpu time spent up to now is     2826.2 secs

     total energy              =   -2217.30961922 Ry
     estimated scf accuracy    <       0.00000031 Ry

     total magnetization       =     0.00 Bohr mag/cell
     absolute magnetization    =     0.01 Bohr mag/cell

     iteration # 90     ecut=    90.00 Ry     beta= 0.20
     Davidson diagonalization with overlap
     ethr =  7.75E-11,  avg # of iterations =  1.0

     total cpu time spent up to now is     2856.5 secs

     total energy              =   -2217.30961921 Ry
     estimated scf accuracy    <       0.00000040 Ry

     total magnetization       =     0.00 Bohr mag/cell
     absolute magnetization    =     0.01 Bohr mag/cell

     iteration # 91     ecut=    90.00 Ry     beta= 0.20
     Davidson diagonalization with overlap
     ethr =  7.75E-11,  avg # of iterations =  1.0

     total cpu time spent up to now is     2886.6 secs

     total energy              =   -2217.30961921 Ry
     estimated scf accuracy    <       0.00000029 Ry

     total magnetization       =     0.00 Bohr mag/cell
     absolute magnetization    =     0.01 Bohr mag/cell

     iteration # 92     ecut=    90.00 Ry     beta= 0.20
     Davidson diagonalization with overlap
     ethr =  7.75E-11,  avg # of iterations =  1.0

     total cpu time spent up to now is     2916.4 secs

     total energy              =   -2217.30961921 Ry
     estimated scf accuracy    <       0.00000028 Ry

     total magnetization       =     0.00 Bohr mag/cell
     absolute magnetization    =     0.01 Bohr mag/cell

     iteration # 93     ecut=    90.00 Ry     beta= 0.20
     Davidson diagonalization with overlap
     ethr =  7.75E-11,  avg # of iterations =  1.0

     total cpu time spent up to now is     2946.7 secs

     total energy              =   -2217.30961921 Ry
     estimated scf accuracy    <       0.00000026 Ry

     total magnetization       =     0.00 Bohr mag/cell
     absolute magnetization    =     0.01 Bohr mag/cell

     iteration # 94     ecut=    90.00 Ry     beta= 0.20
     Davidson diagonalization with overlap
     ethr =  7.75E-11,  avg # of iterations =  1.0

     total cpu time spent up to now is     2976.4 secs

     total energy              =   -2217.30961922 Ry
     estimated scf accuracy    <       0.00000027 Ry

     total magnetization       =     0.00 Bohr mag/cell
     absolute magnetization    =     0.01 Bohr mag/cell

     iteration # 95     ecut=    90.00 Ry     beta= 0.20
     Davidson diagonalization with overlap
     ethr =  7.75E-11,  avg # of iterations =  1.0

     total cpu time spent up to now is     3008.1 secs

     total energy              =   -2217.30961914 Ry
     estimated scf accuracy    <       0.00000038 Ry

     total magnetization       =     0.00 Bohr mag/cell
     absolute magnetization    =     0.01 Bohr mag/cell

     iteration # 96     ecut=    90.00 Ry     beta= 0.20
     Davidson diagonalization with overlap
     ethr =  7.75E-11,  avg # of iterations =  1.1

     total cpu time spent up to now is     3038.1 secs

     total energy              =   -2217.30961918 Ry
     estimated scf accuracy    <       0.00000072 Ry

     total magnetization       =     0.00 Bohr mag/cell
     absolute magnetization    =     0.01 Bohr mag/cell

     iteration # 97     ecut=    90.00 Ry     beta= 0.20
     Davidson diagonalization with overlap
     ethr =  7.75E-11,  avg # of iterations =  1.1

     total cpu time spent up to now is     3068.2 secs

     total energy              =   -2217.30961904 Ry
     estimated scf accuracy    <       0.00000070 Ry

     total magnetization       =     0.00 Bohr mag/cell
     absolute magnetization    =     0.01 Bohr mag/cell

     iteration # 98     ecut=    90.00 Ry     beta= 0.20
     Davidson diagonalization with overlap
     ethr =  7.75E-11,  avg # of iterations =  2.1

     total cpu time spent up to now is     3103.9 secs

     total energy              =   -2217.30961918 Ry
     estimated scf accuracy    <       0.00000042 Ry

     total magnetization       =     0.00 Bohr mag/cell
     absolute magnetization    =     0.01 Bohr mag/cell

     iteration # 99     ecut=    90.00 Ry     beta= 0.20
     Davidson diagonalization with overlap
     ethr =  7.75E-11,  avg # of iterations =  1.6

     total cpu time spent up to now is     3135.9 secs

     total energy              =   -2217.30961912 Ry
     estimated scf accuracy    <       0.00000173 Ry

     total magnetization       =     0.00 Bohr mag/cell
     absolute magnetization    =     0.01 Bohr mag/cell

     iteration #100     ecut=    90.00 Ry     beta= 0.20
     Davidson diagonalization with overlap
     ethr =  7.75E-11,  avg # of iterations =  1.3

     total cpu time spent up to now is     3167.4 secs

     total energy              =   -2217.30961916 Ry
     estimated scf accuracy    <       0.00000078 Ry

     total magnetization       =     0.00 Bohr mag/cell
     absolute magnetization    =     0.01 Bohr mag/cell

     iteration #101     ecut=    90.00 Ry     beta= 0.20
     Davidson diagonalization with overlap
     ethr =  7.75E-11,  avg # of iterations =  1.0

     total cpu time spent up to now is     3197.3 secs

     total energy              =   -2217.30961847 Ry
     estimated scf accuracy    <       0.00000045 Ry

     total magnetization       =     0.00 Bohr mag/cell
     absolute magnetization    =     0.01 Bohr mag/cell

     iteration #102     ecut=    90.00 Ry     beta= 0.20
     Davidson diagonalization with overlap
     ethr =  7.75E-11,  avg # of iterations =  3.6

     total cpu time spent up to now is     3242.7 secs

     total energy              =   -2217.30961931 Ry
     estimated scf accuracy    <       0.00000036 Ry

     total magnetization       =     0.00 Bohr mag/cell
     absolute magnetization    =     0.02 Bohr mag/cell

     iteration #103     ecut=    90.00 Ry     beta= 0.20
     Davidson diagonalization with overlap
     ethr =  7.75E-11,  avg # of iterations =  1.0

     total cpu time spent up to now is     3272.2 secs

     total energy              =   -2217.30961934 Ry
     estimated scf accuracy    <       0.00000033 Ry

     total magnetization       =     0.00 Bohr mag/cell
     absolute magnetization    =     0.01 Bohr mag/cell

     iteration #104     ecut=    90.00 Ry     beta= 0.20
     Davidson diagonalization with overlap
     ethr =  7.75E-11,  avg # of iterations =  1.5

     total cpu time spent up to now is     3304.2 secs

     total energy              =   -2217.30961940 Ry
     estimated scf accuracy    <       0.00000049 Ry

     total magnetization       =     0.00 Bohr mag/cell
     absolute magnetization    =     0.02 Bohr mag/cell

     iteration #105     ecut=    90.00 Ry     beta= 0.20
     Davidson diagonalization with overlap
     ethr =  7.75E-11,  avg # of iterations =  1.0

     total cpu time spent up to now is     3334.6 secs

     total energy              =   -2217.30961938 Ry
     estimated scf accuracy    <       0.00000039 Ry

     total magnetization       =     0.00 Bohr mag/cell
     absolute magnetization    =     0.02 Bohr mag/cell

     iteration #106     ecut=    90.00 Ry     beta= 0.20
     Davidson diagonalization with overlap
     ethr =  7.75E-11,  avg # of iterations =  1.0

     total cpu time spent up to now is     3364.7 secs

     total energy              =   -2217.30961916 Ry
     estimated scf accuracy    <       0.00000032 Ry

     total magnetization       =     0.00 Bohr mag/cell
     absolute magnetization    =     0.02 Bohr mag/cell

     iteration #107     ecut=    90.00 Ry     beta= 0.20
     Davidson diagonalization with overlap
     ethr =  7.75E-11,  avg # of iterations =  2.2

     total cpu time spent up to now is     3401.4 secs

     total energy              =   -2217.30961930 Ry
     estimated scf accuracy    <       0.00000241 Ry

     total magnetization       =     0.00 Bohr mag/cell
     absolute magnetization    =     0.01 Bohr mag/cell

     iteration #108     ecut=    90.00 Ry     beta= 0.20
     Davidson diagonalization with overlap
     ethr =  7.75E-11,  avg # of iterations =  1.0

     total cpu time spent up to now is     3431.2 secs

     total energy              =   -2217.30961896 Ry
     estimated scf accuracy    <       0.00000040 Ry

     total magnetization       =     0.00 Bohr mag/cell
     absolute magnetization    =     0.01 Bohr mag/cell

     iteration #109     ecut=    90.00 Ry     beta= 0.20
     Davidson diagonalization with overlap
     ethr =  7.75E-11,  avg # of iterations =  2.4

     total cpu time spent up to now is     3468.8 secs

     total energy              =   -2217.30961911 Ry
     estimated scf accuracy    <       0.00000076 Ry

     total magnetization       =    -0.00 Bohr mag/cell
     absolute magnetization    =     0.01 Bohr mag/cell

     iteration #110     ecut=    90.00 Ry     beta= 0.20
     Davidson diagonalization with overlap
     ethr =  7.75E-11,  avg # of iterations =  1.1

     total cpu time spent up to now is     3498.6 secs

     total energy              =   -2217.30961914 Ry
     estimated scf accuracy    <       0.00000022 Ry

     total magnetization       =     0.00 Bohr mag/cell
     absolute magnetization    =     0.01 Bohr mag/cell

     iteration #111     ecut=    90.00 Ry     beta= 0.20
     Davidson diagonalization with overlap
     ethr =  7.75E-11,  avg # of iterations =  1.0

     total cpu time spent up to now is     3528.3 secs

     total energy              =   -2217.30961912 Ry
     estimated scf accuracy    <       0.00000032 Ry

     total magnetization       =    -0.00 Bohr mag/cell
     absolute magnetization    =     0.01 Bohr mag/cell

     iteration #112     ecut=    90.00 Ry     beta= 0.20
     Davidson diagonalization with overlap
     ethr =  7.75E-11,  avg # of iterations =  1.0

     total cpu time spent up to now is     3558.2 secs

     total energy              =   -2217.30961904 Ry
     estimated scf accuracy    <       0.00000006 Ry

     total magnetization       =    -0.00 Bohr mag/cell
     absolute magnetization    =     0.01 Bohr mag/cell

     iteration #113     ecut=    90.00 Ry     beta= 0.20
     Davidson diagonalization with overlap
     ethr =  4.74E-11,  avg # of iterations =  2.2

     total cpu time spent up to now is     3592.9 secs

     total energy              =   -2217.30961910 Ry
     estimated scf accuracy    <       0.00000007 Ry

     total magnetization       =     0.00 Bohr mag/cell
     absolute magnetization    =     0.01 Bohr mag/cell

     iteration #114     ecut=    90.00 Ry     beta= 0.20
     Davidson diagonalization with overlap
     ethr =  4.74E-11,  avg # of iterations =  1.0

     total cpu time spent up to now is     3625.4 secs

     total energy              =   -2217.30961912 Ry
     estimated scf accuracy    <       0.00000005 Ry

     total magnetization       =    -0.00 Bohr mag/cell
     absolute magnetization    =     0.01 Bohr mag/cell

     iteration #115     ecut=    90.00 Ry     beta= 0.20
     Davidson diagonalization with overlap
     ethr =  3.96E-11,  avg # of iterations =  1.0

     total cpu time spent up to now is     3655.7 secs

     total energy              =   -2217.30961913 Ry
     estimated scf accuracy    <       0.00000003 Ry

     total magnetization       =    -0.00 Bohr mag/cell
     absolute magnetization    =     0.01 Bohr mag/cell

     iteration #116     ecut=    90.00 Ry     beta= 0.20
     Davidson diagonalization with overlap
     ethr =  2.42E-11,  avg # of iterations =  1.0

     total cpu time spent up to now is     3686.0 secs

     total energy              =   -2217.30961913 Ry
     estimated scf accuracy    <       0.00000003 Ry

     total magnetization       =    -0.00 Bohr mag/cell
     absolute magnetization    =     0.01 Bohr mag/cell

     iteration #117     ecut=    90.00 Ry     beta= 0.20
     Davidson diagonalization with overlap
     ethr =  2.33E-11,  avg # of iterations =  1.0

     total cpu time spent up to now is     3716.3 secs

     total energy              =   -2217.30961912 Ry
     estimated scf accuracy    <       0.00000007 Ry

     total magnetization       =    -0.00 Bohr mag/cell
     absolute magnetization    =     0.01 Bohr mag/cell

     iteration #118     ecut=    90.00 Ry     beta= 0.20
     Davidson diagonalization with overlap
     ethr =  2.33E-11,  avg # of iterations =  1.0

     total cpu time spent up to now is     3746.9 secs

     total energy              =   -2217.30961913 Ry
     estimated scf accuracy    <       0.00000003 Ry

     total magnetization       =    -0.00 Bohr mag/cell
     absolute magnetization    =     0.01 Bohr mag/cell

     iteration #119     ecut=    90.00 Ry     beta= 0.20
     Davidson diagonalization with overlap
     ethr =  2.06E-11,  avg # of iterations =  1.0

     total cpu time spent up to now is     3776.9 secs

     total energy              =   -2217.30961913 Ry
     estimated scf accuracy    <       0.00000006 Ry

     total magnetization       =    -0.00 Bohr mag/cell
     absolute magnetization    =     0.01 Bohr mag/cell

     iteration #120     ecut=    90.00 Ry     beta= 0.20
     Davidson diagonalization with overlap
     ethr =  2.06E-11,  avg # of iterations =  1.0

     total cpu time spent up to now is     3806.8 secs

     total energy              =   -2217.30961913 Ry
     estimated scf accuracy    <       0.00000003 Ry

     total magnetization       =    -0.00 Bohr mag/cell
     absolute magnetization    =     0.01 Bohr mag/cell

     iteration #121     ecut=    90.00 Ry     beta= 0.20
     Davidson diagonalization with overlap
     ethr =  2.06E-11,  avg # of iterations =  1.0

     total cpu time spent up to now is     3837.0 secs

     total energy              =   -2217.30961913 Ry
     estimated scf accuracy    <       0.00000004 Ry

     total magnetization       =    -0.00 Bohr mag/cell
     absolute magnetization    =     0.01 Bohr mag/cell

     iteration #122     ecut=    90.00 Ry     beta= 0.20
     Davidson diagonalization with overlap
     ethr =  2.06E-11,  avg # of iterations =  1.0

     total cpu time spent up to now is     3867.4 secs

     total energy              =   -2217.30961912 Ry
     estimated scf accuracy    <       0.00000004 Ry

     total magnetization       =    -0.00 Bohr mag/cell
     absolute magnetization    =     0.01 Bohr mag/cell

     iteration #123     ecut=    90.00 Ry     beta= 0.20
     Davidson diagonalization with overlap
     ethr =  2.06E-11,  avg # of iterations =  1.0

     total cpu time spent up to now is     3897.3 secs

     total energy              =   -2217.30961913 Ry
     estimated scf accuracy    <       0.00000003 Ry

     total magnetization       =    -0.00 Bohr mag/cell
     absolute magnetization    =     0.01 Bohr mag/cell

     iteration #124     ecut=    90.00 Ry     beta= 0.20
     Davidson diagonalization with overlap
     ethr =  2.06E-11,  avg # of iterations =  1.0

     total cpu time spent up to now is     3927.4 secs

     total energy              =   -2217.30961913 Ry
     estimated scf accuracy    <       0.00000008 Ry

     total magnetization       =    -0.00 Bohr mag/cell
     absolute magnetization    =     0.01 Bohr mag/cell

     iteration #125     ecut=    90.00 Ry     beta= 0.20
     Davidson diagonalization with overlap
     ethr =  2.06E-11,  avg # of iterations =  1.0

     total cpu time spent up to now is     3957.2 secs

     total energy              =   -2217.30961913 Ry
     estimated scf accuracy    <       0.00000018 Ry

     total magnetization       =    -0.00 Bohr mag/cell
     absolute magnetization    =     0.01 Bohr mag/cell

     iteration #126     ecut=    90.00 Ry     beta= 0.20
     Davidson diagonalization with overlap
     ethr =  2.06E-11,  avg # of iterations =  1.0

     total cpu time spent up to now is     3986.8 secs

     total energy              =   -2217.30961913 Ry
     estimated scf accuracy    <       0.00000003 Ry

     total magnetization       =    -0.00 Bohr mag/cell
     absolute magnetization    =     0.01 Bohr mag/cell

     iteration #127     ecut=    90.00 Ry     beta= 0.20
     Davidson diagonalization with overlap
     ethr =  2.06E-11,  avg # of iterations =  1.0

     total cpu time spent up to now is     4016.7 secs

     total energy              =   -2217.30961913 Ry
     estimated scf accuracy    <       0.00000006 Ry

     total magnetization       =    -0.00 Bohr mag/cell
     absolute magnetization    =     0.01 Bohr mag/cell

     iteration #128     ecut=    90.00 Ry     beta= 0.20
     Davidson diagonalization with overlap
     ethr =  2.06E-11,  avg # of iterations =  1.0

     total cpu time spent up to now is     4046.1 secs

     total energy              =   -2217.30961914 Ry
     estimated scf accuracy    <       0.00000003 Ry

     total magnetization       =    -0.00 Bohr mag/cell
     absolute magnetization    =     0.01 Bohr mag/cell

     iteration #129     ecut=    90.00 Ry     beta= 0.20
     Davidson diagonalization with overlap
     ethr =  2.06E-11,  avg # of iterations =  1.0

     total cpu time spent up to now is     4076.6 secs

     total energy              =   -2217.30961914 Ry
     estimated scf accuracy    <       0.00000008 Ry

     total magnetization       =    -0.00 Bohr mag/cell
     absolute magnetization    =     0.01 Bohr mag/cell

     iteration #130     ecut=    90.00 Ry     beta= 0.20
     Davidson diagonalization with overlap
     ethr =  2.06E-11,  avg # of iterations =  1.0

     total cpu time spent up to now is     4106.4 secs

     total energy              =   -2217.30961914 Ry
     estimated scf accuracy    <       0.00000005 Ry

     total magnetization       =    -0.00 Bohr mag/cell
     absolute magnetization    =     0.01 Bohr mag/cell

     iteration #131     ecut=    90.00 Ry     beta= 0.20
     Davidson diagonalization with overlap
     ethr =  2.06E-11,  avg # of iterations =  1.0

     total cpu time spent up to now is     4136.5 secs

     total energy              =   -2217.30961914 Ry
     estimated scf accuracy    <       0.00000005 Ry

     total magnetization       =    -0.00 Bohr mag/cell
     absolute magnetization    =     0.01 Bohr mag/cell

     iteration #132     ecut=    90.00 Ry     beta= 0.20
     Davidson diagonalization with overlap
     ethr =  2.06E-11,  avg # of iterations =  1.0

     total cpu time spent up to now is     4166.6 secs

     total energy              =   -2217.30961912 Ry
     estimated scf accuracy    <       0.00000005 Ry

     total magnetization       =    -0.00 Bohr mag/cell
     absolute magnetization    =     0.01 Bohr mag/cell

     iteration #133     ecut=    90.00 Ry     beta= 0.20
     Davidson diagonalization with overlap
     ethr =  2.06E-11,  avg # of iterations =  1.0

     total cpu time spent up to now is     4197.0 secs

     total energy              =   -2217.30961912 Ry
     estimated scf accuracy    <       0.00000003 Ry

     total magnetization       =    -0.00 Bohr mag/cell
     absolute magnetization    =     0.01 Bohr mag/cell

     iteration #134     ecut=    90.00 Ry     beta= 0.20
     Davidson diagonalization with overlap
     ethr =  2.06E-11,  avg # of iterations =  1.0

     total cpu time spent up to now is     4229.4 secs

     total energy              =   -2217.30961913 Ry
     estimated scf accuracy    <       0.00000012 Ry

     total magnetization       =    -0.00 Bohr mag/cell
     absolute magnetization    =     0.01 Bohr mag/cell

     iteration #135     ecut=    90.00 Ry     beta= 0.20
     Davidson diagonalization with overlap
     ethr =  2.06E-11,  avg # of iterations =  1.0

     total cpu time spent up to now is     4259.4 secs

     total energy              =   -2217.30961913 Ry
     estimated scf accuracy    <       0.00000004 Ry

     total magnetization       =    -0.00 Bohr mag/cell
     absolute magnetization    =     0.01 Bohr mag/cell

     iteration #136     ecut=    90.00 Ry     beta= 0.20
     Davidson diagonalization with overlap
     ethr =  2.06E-11,  avg # of iterations =  1.0

     total cpu time spent up to now is     4289.6 secs

     total energy              =   -2217.30961913 Ry
     estimated scf accuracy    <       0.00000017 Ry

     total magnetization       =    -0.00 Bohr mag/cell
     absolute magnetization    =     0.01 Bohr mag/cell

     iteration #137     ecut=    90.00 Ry     beta= 0.20
     Davidson diagonalization with overlap
     ethr =  2.06E-11,  avg # of iterations =  1.0

     total cpu time spent up to now is     4319.7 secs

     total energy              =   -2217.30961913 Ry
     estimated scf accuracy    <       0.00000005 Ry

     total magnetization       =    -0.00 Bohr mag/cell
     absolute magnetization    =     0.01 Bohr mag/cell

     iteration #138     ecut=    90.00 Ry     beta= 0.20
     Davidson diagonalization with overlap
     ethr =  2.06E-11,  avg # of iterations =  1.0

     total cpu time spent up to now is     4349.7 secs

     total energy              =   -2217.30961913 Ry
     estimated scf accuracy    <       0.00000004 Ry

     total magnetization       =    -0.00 Bohr mag/cell
     absolute magnetization    =     0.01 Bohr mag/cell

     iteration #139     ecut=    90.00 Ry     beta= 0.20
     Davidson diagonalization with overlap
     ethr =  2.06E-11,  avg # of iterations =  1.0

     total cpu time spent up to now is     4379.7 secs

     total energy              =   -2217.30961912 Ry
     estimated scf accuracy    <       0.00000007 Ry

     total magnetization       =    -0.00 Bohr mag/cell
     absolute magnetization    =     0.01 Bohr mag/cell

     iteration #140     ecut=    90.00 Ry     beta= 0.20
     Davidson diagonalization with overlap
     ethr =  2.06E-11,  avg # of iterations =  1.0

     total cpu time spent up to now is     4409.4 secs

     total energy              =   -2217.30961912 Ry
     estimated scf accuracy    <       0.00000003 Ry

     total magnetization       =    -0.00 Bohr mag/cell
     absolute magnetization    =     0.01 Bohr mag/cell

     iteration #141     ecut=    90.00 Ry     beta= 0.20
     Davidson diagonalization with overlap
     ethr =  2.05E-11,  avg # of iterations =  1.0

     total cpu time spent up to now is     4439.5 secs

     total energy              =   -2217.30961913 Ry
     estimated scf accuracy    <       0.00000003 Ry

     total magnetization       =    -0.00 Bohr mag/cell
     absolute magnetization    =     0.01 Bohr mag/cell

     iteration #142     ecut=    90.00 Ry     beta= 0.20
     Davidson diagonalization with overlap
     ethr =  2.05E-11,  avg # of iterations =  1.0

     total cpu time spent up to now is     4469.5 secs

     total energy              =   -2217.30961913 Ry
     estimated scf accuracy    <       0.00000003 Ry

     total magnetization       =    -0.00 Bohr mag/cell
     absolute magnetization    =     0.01 Bohr mag/cell

     iteration #143     ecut=    90.00 Ry     beta= 0.20
     Davidson diagonalization with overlap
     ethr =  2.05E-11,  avg # of iterations =  1.0

     total cpu time spent up to now is     4499.2 secs

     total energy              =   -2217.30961913 Ry
     estimated scf accuracy    <       0.00000004 Ry

     total magnetization       =    -0.00 Bohr mag/cell
     absolute magnetization    =     0.01 Bohr mag/cell

     iteration #144     ecut=    90.00 Ry     beta= 0.20
     Davidson diagonalization with overlap
     ethr =  2.05E-11,  avg # of iterations =  1.0

     total cpu time spent up to now is     4529.4 secs

     total energy              =   -2217.30961913 Ry
     estimated scf accuracy    <       0.00000004 Ry

     total magnetization       =    -0.00 Bohr mag/cell
     absolute magnetization    =     0.01 Bohr mag/cell

     iteration #145     ecut=    90.00 Ry     beta= 0.20
     Davidson diagonalization with overlap
     ethr =  2.05E-11,  avg # of iterations =  1.0

     total cpu time spent up to now is     4559.2 secs

     total energy              =   -2217.30961913 Ry
     estimated scf accuracy    <       0.00000004 Ry

     total magnetization       =    -0.00 Bohr mag/cell
     absolute magnetization    =     0.01 Bohr mag/cell

     iteration #146     ecut=    90.00 Ry     beta= 0.20
     Davidson diagonalization with overlap
     ethr =  2.05E-11,  avg # of iterations =  1.0

     total cpu time spent up to now is     4589.3 secs

     total energy              =   -2217.30961913 Ry
     estimated scf accuracy    <       0.00000004 Ry

     total magnetization       =    -0.00 Bohr mag/cell
     absolute magnetization    =     0.01 Bohr mag/cell

     iteration #147     ecut=    90.00 Ry     beta= 0.20
     Davidson diagonalization with overlap
     ethr =  2.05E-11,  avg # of iterations =  1.0

     total cpu time spent up to now is     4619.3 secs

     total energy              =   -2217.30961913 Ry
     estimated scf accuracy    <       0.00000007 Ry

     total magnetization       =    -0.00 Bohr mag/cell
     absolute magnetization    =     0.01 Bohr mag/cell

     iteration #148     ecut=    90.00 Ry     beta= 0.20
     Davidson diagonalization with overlap
     ethr =  2.05E-11,  avg # of iterations =  1.0

     total cpu time spent up to now is     4649.2 secs

     total energy              =   -2217.30961913 Ry
     estimated scf accuracy    <       0.00000005 Ry

     total magnetization       =    -0.00 Bohr mag/cell
     absolute magnetization    =     0.01 Bohr mag/cell

     iteration #149     ecut=    90.00 Ry     beta= 0.20
     Davidson diagonalization with overlap
     ethr =  2.05E-11,  avg # of iterations =  1.0

     total cpu time spent up to now is     4679.5 secs

     total energy              =   -2217.30961913 Ry
     estimated scf accuracy    <       0.00000015 Ry

     total magnetization       =    -0.00 Bohr mag/cell
     absolute magnetization    =     0.01 Bohr mag/cell

     iteration #150     ecut=    90.00 Ry     beta= 0.20
     Davidson diagonalization with overlap
     ethr =  2.05E-11,  avg # of iterations =  1.0

     total cpu time spent up to now is     4709.6 secs

     total energy              =   -2217.30961913 Ry
     estimated scf accuracy    <       0.00000004 Ry

     total magnetization       =    -0.00 Bohr mag/cell
     absolute magnetization    =     0.01 Bohr mag/cell

     iteration #151     ecut=    90.00 Ry     beta= 0.20
     Davidson diagonalization with overlap
     ethr =  2.05E-11,  avg # of iterations =  1.0

     total cpu time spent up to now is     4740.0 secs

     total energy              =   -2217.30961912 Ry
     estimated scf accuracy    <       0.00000004 Ry

     total magnetization       =    -0.00 Bohr mag/cell
     absolute magnetization    =     0.01 Bohr mag/cell

     iteration #152     ecut=    90.00 Ry     beta= 0.20
     Davidson diagonalization with overlap
     ethr =  2.05E-11,  avg # of iterations =  1.0

     total cpu time spent up to now is     4770.3 secs

     total energy              =   -2217.30961913 Ry
     estimated scf accuracy    <       0.00000006 Ry

     total magnetization       =    -0.00 Bohr mag/cell
     absolute magnetization    =     0.01 Bohr mag/cell

     iteration #153     ecut=    90.00 Ry     beta= 0.20
     Davidson diagonalization with overlap
     ethr =  2.05E-11,  avg # of iterations =  1.0

     total cpu time spent up to now is     4800.4 secs

     total energy              =   -2217.30961912 Ry
     estimated scf accuracy    <       0.00000005 Ry

     total magnetization       =    -0.00 Bohr mag/cell
     absolute magnetization    =     0.01 Bohr mag/cell

     iteration #154     ecut=    90.00 Ry     beta= 0.20
     Davidson diagonalization with overlap
     ethr =  2.05E-11,  avg # of iterations =  1.0

     total cpu time spent up to now is     4832.5 secs

     total energy              =   -2217.30961912 Ry
     estimated scf accuracy    <       0.00000008 Ry

     total magnetization       =    -0.00 Bohr mag/cell
     absolute magnetization    =     0.01 Bohr mag/cell

     iteration #155     ecut=    90.00 Ry     beta= 0.20
     Davidson diagonalization with overlap
     ethr =  2.05E-11,  avg # of iterations =  1.0

     total cpu time spent up to now is     4863.3 secs

     total energy              =   -2217.30961912 Ry
     estimated scf accuracy    <       0.00000006 Ry

     total magnetization       =    -0.00 Bohr mag/cell
     absolute magnetization    =     0.01 Bohr mag/cell

     iteration #156     ecut=    90.00 Ry     beta= 0.20
     Davidson diagonalization with overlap
     ethr =  2.05E-11,  avg # of iterations =  1.0

     total cpu time spent up to now is     4893.2 secs

     total energy              =   -2217.30961911 Ry
     estimated scf accuracy    <       0.00000005 Ry

     total magnetization       =    -0.00 Bohr mag/cell
     absolute magnetization    =     0.01 Bohr mag/cell

     iteration #157     ecut=    90.00 Ry     beta= 0.20
     Davidson diagonalization with overlap
     ethr =  2.05E-11,  avg # of iterations =  1.0

     total cpu time spent up to now is     4923.5 secs

     total energy              =   -2217.30961911 Ry
     estimated scf accuracy    <       0.00000004 Ry

     total magnetization       =    -0.00 Bohr mag/cell
     absolute magnetization    =     0.01 Bohr mag/cell

     iteration #158     ecut=    90.00 Ry     beta= 0.20
     Davidson diagonalization with overlap
     ethr =  2.05E-11,  avg # of iterations =  1.0

     total cpu time spent up to now is     4953.6 secs

     total energy              =   -2217.30961910 Ry
     estimated scf accuracy    <       0.00000003 Ry

     total magnetization       =    -0.00 Bohr mag/cell
     absolute magnetization    =     0.01 Bohr mag/cell

     iteration #159     ecut=    90.00 Ry     beta= 0.20
     Davidson diagonalization with overlap
     ethr =  2.05E-11,  avg # of iterations =  1.0

     total cpu time spent up to now is     4983.6 secs

     total energy              =   -2217.30961910 Ry
     estimated scf accuracy    <       0.00000005 Ry

     total magnetization       =    -0.00 Bohr mag/cell
     absolute magnetization    =     0.01 Bohr mag/cell

     iteration #160     ecut=    90.00 Ry     beta= 0.20
     Davidson diagonalization with overlap
     ethr =  2.05E-11,  avg # of iterations =  1.0

     total cpu time spent up to now is     5013.5 secs

     total energy              =   -2217.30961910 Ry
     estimated scf accuracy    <       0.00000007 Ry

     total magnetization       =    -0.00 Bohr mag/cell
     absolute magnetization    =     0.01 Bohr mag/cell

     iteration #161     ecut=    90.00 Ry     beta= 0.20
     Davidson diagonalization with overlap
     ethr =  2.05E-11,  avg # of iterations =  1.0

     total cpu time spent up to now is     5043.5 secs

     total energy              =   -2217.30961910 Ry
     estimated scf accuracy    <       0.00000003 Ry

     total magnetization       =    -0.00 Bohr mag/cell
     absolute magnetization    =     0.01 Bohr mag/cell

     iteration #162     ecut=    90.00 Ry     beta= 0.20
     Davidson diagonalization with overlap
     ethr =  2.05E-11,  avg # of iterations =  1.0

     total cpu time spent up to now is     5073.4 secs

     total energy              =   -2217.30961911 Ry
     estimated scf accuracy    <       0.00000004 Ry

     total magnetization       =    -0.00 Bohr mag/cell
     absolute magnetization    =     0.01 Bohr mag/cell

     iteration #163     ecut=    90.00 Ry     beta= 0.20
     Davidson diagonalization with overlap
     ethr =  2.05E-11,  avg # of iterations =  1.0

     total cpu time spent up to now is     5103.4 secs

     total energy              =   -2217.30961912 Ry
     estimated scf accuracy    <       0.00000004 Ry

     total magnetization       =    -0.00 Bohr mag/cell
     absolute magnetization    =     0.01 Bohr mag/cell

     iteration #164     ecut=    90.00 Ry     beta= 0.20
     Davidson diagonalization with overlap
     ethr =  2.05E-11,  avg # of iterations =  1.0

     total cpu time spent up to now is     5133.4 secs

     total energy              =   -2217.30961912 Ry
     estimated scf accuracy    <       0.00000004 Ry

     total magnetization       =    -0.00 Bohr mag/cell
     absolute magnetization    =     0.01 Bohr mag/cell

     iteration #165     ecut=    90.00 Ry     beta= 0.20
     Davidson diagonalization with overlap
     ethr =  2.05E-11,  avg # of iterations =  1.0

     total cpu time spent up to now is     5163.4 secs

     total energy              =   -2217.30961912 Ry
     estimated scf accuracy    <       0.00000007 Ry

     total magnetization       =    -0.00 Bohr mag/cell
     absolute magnetization    =     0.01 Bohr mag/cell

     iteration #166     ecut=    90.00 Ry     beta= 0.20
     Davidson diagonalization with overlap
     ethr =  2.05E-11,  avg # of iterations =  1.0

     total cpu time spent up to now is     5193.2 secs

     total energy              =   -2217.30961913 Ry
     estimated scf accuracy    <       0.00000008 Ry

     total magnetization       =    -0.00 Bohr mag/cell
     absolute magnetization    =     0.01 Bohr mag/cell

     iteration #167     ecut=    90.00 Ry     beta= 0.20
     Davidson diagonalization with overlap
     ethr =  2.05E-11,  avg # of iterations =  1.0

     total cpu time spent up to now is     5223.0 secs

     total energy              =   -2217.30961913 Ry
     estimated scf accuracy    <       0.00000004 Ry

     total magnetization       =    -0.00 Bohr mag/cell
     absolute magnetization    =     0.01 Bohr mag/cell

     iteration #168     ecut=    90.00 Ry     beta= 0.20
     Davidson diagonalization with overlap
     ethr =  2.05E-11,  avg # of iterations =  1.0

     total cpu time spent up to now is     5252.9 secs

     total energy              =   -2217.30961914 Ry
     estimated scf accuracy    <       0.00000006 Ry

     total magnetization       =    -0.00 Bohr mag/cell
     absolute magnetization    =     0.01 Bohr mag/cell

     iteration #169     ecut=    90.00 Ry     beta= 0.20
     Davidson diagonalization with overlap
     ethr =  2.05E-11,  avg # of iterations =  1.0

     total cpu time spent up to now is     5282.9 secs

     total energy              =   -2217.30961915 Ry
     estimated scf accuracy    <       0.00000004 Ry

     total magnetization       =    -0.00 Bohr mag/cell
     absolute magnetization    =     0.01 Bohr mag/cell

     iteration #170     ecut=    90.00 Ry     beta= 0.20
     Davidson diagonalization with overlap
     ethr =  2.05E-11,  avg # of iterations =  1.0

     total cpu time spent up to now is     5312.6 secs

     total energy              =   -2217.30961914 Ry
     estimated scf accuracy    <       0.00000003 Ry

     total magnetization       =    -0.00 Bohr mag/cell
     absolute magnetization    =     0.01 Bohr mag/cell

     iteration #171     ecut=    90.00 Ry     beta= 0.20
     Davidson diagonalization with overlap
     ethr =  2.05E-11,  avg # of iterations =  1.0

     total cpu time spent up to now is     5342.5 secs

     total energy              =   -2217.30961915 Ry
     estimated scf accuracy    <       0.00000003 Ry

     total magnetization       =    -0.00 Bohr mag/cell
     absolute magnetization    =     0.01 Bohr mag/cell

     iteration #172     ecut=    90.00 Ry     beta= 0.20
     Davidson diagonalization with overlap
     ethr =  2.05E-11,  avg # of iterations =  1.0

     total cpu time spent up to now is     5372.3 secs

     total energy              =   -2217.30961915 Ry
     estimated scf accuracy    <       0.00000005 Ry

     total magnetization       =    -0.00 Bohr mag/cell
     absolute magnetization    =     0.01 Bohr mag/cell

     iteration #173     ecut=    90.00 Ry     beta= 0.20
     Davidson diagonalization with overlap
[...]

     total cpu time spent up to now is    11705.4 secs

     total energy              =   -2217.30961920 Ry
     estimated scf accuracy    <       0.00000025 Ry

     total magnetization       =    -0.00 Bohr mag/cell
     absolute magnetization    =     0.01 Bohr mag/cell

     iteration #377     ecut=    90.00 Ry     beta= 0.20
     Davidson diagonalization with overlap
     ethr =  1.53E-11,  avg # of iterations =  2.2

     total cpu time spent up to now is    11741.3 secs

     total energy              =   -2217.30961924 Ry
     estimated scf accuracy    <       0.00000061 Ry

     total magnetization       =    -0.00 Bohr mag/cell
     absolute magnetization    =     0.01 Bohr mag/cell

     iteration #378     ecut=    90.00 Ry     beta= 0.20
     Davidson diagonalization with overlap
     ethr =  1.53E-11,  avg # of iterations =  1.9

     total cpu time spent up to now is    11774.8 secs

     total energy              =   -2217.30961909 Ry
     estimated scf accuracy    <       0.00000020 Ry

     total magnetization       =    -0.00 Bohr mag/cell
     absolute magnetization    =     0.01 Bohr mag/cell

     iteration #379     ecut=    90.00 Ry     beta= 0.20
     Davidson diagonalization with overlap
     ethr =  1.53E-11,  avg # of iterations =  2.6

     total cpu time spent up to now is    11814.8 secs

     total energy              =   -2217.30961902 Ry
     estimated scf accuracy    <       0.00000009 Ry

     total magnetization       =     0.00 Bohr mag/cell
     absolute magnetization    =     0.01 Bohr mag/cell

     iteration #380     ecut=    90.00 Ry     beta= 0.20
     Davidson diagonalization with overlap
     ethr =  1.53E-11,  avg # of iterations =  3.3

     total cpu time spent up to now is    11858.1 secs

     total energy              =   -2217.30961911 Ry
     estimated scf accuracy    <       0.00000011 Ry

     total magnetization       =     0.00 Bohr mag/cell
     absolute magnetization    =     0.01 Bohr mag/cell

     iteration #381     ecut=    90.00 Ry     beta= 0.20
     Davidson diagonalization with overlap
     ethr =  1.53E-11,  avg # of iterations =  1.0

     total cpu time spent up to now is    11888.0 secs

     total energy              =   -2217.30961911 Ry
     estimated scf accuracy    <       0.00000004 Ry

     total magnetization       =     0.00 Bohr mag/cell
     absolute magnetization    =     0.01 Bohr mag/cell

     iteration #382     ecut=    90.00 Ry     beta= 0.20
     Davidson diagonalization with overlap
     ethr =  1.53E-11,  avg # of iterations =  1.0

     total cpu time spent up to now is    11918.2 secs

     total energy              =   -2217.30961911 Ry
     estimated scf accuracy    <       0.00000005 Ry

     total magnetization       =     0.00 Bohr mag/cell
     absolute magnetization    =     0.01 Bohr mag/cell

     iteration #383     ecut=    90.00 Ry     beta= 0.20
     Davidson diagonalization with overlap
     ethr =  1.53E-11,  avg # of iterations =  1.0

     total cpu time spent up to now is    11948.2 secs

     total energy              =   -2217.30961911 Ry
     estimated scf accuracy    <       0.00000005 Ry

     total magnetization       =     0.00 Bohr mag/cell
     absolute magnetization    =     0.01 Bohr mag/cell

     iteration #384     ecut=    90.00 Ry     beta= 0.20
     Davidson diagonalization with overlap
     ethr =  1.53E-11,  avg # of iterations =  1.0

     total cpu time spent up to now is    11978.8 secs

     total energy              =   -2217.30961911 Ry
     estimated scf accuracy    <       0.00000004 Ry

     total magnetization       =     0.00 Bohr mag/cell
     absolute magnetization    =     0.01 Bohr mag/cell

     iteration #385     ecut=    90.00 Ry     beta= 0.20
     Davidson diagonalization with overlap
     ethr =  1.53E-11,  avg # of iterations =  1.1

     total cpu time spent up to now is    12010.9 secs

     total energy              =   -2217.30961911 Ry
     estimated scf accuracy    <       0.00000006 Ry

     total magnetization       =     0.00 Bohr mag/cell
     absolute magnetization    =     0.01 Bohr mag/cell

     iteration #386     ecut=    90.00 Ry     beta= 0.20
     Davidson diagonalization with overlap
     ethr =  1.53E-11,  avg # of iterations =  1.0

     total cpu time spent up to now is    12040.5 secs

     total energy              =   -2217.30961911 Ry
     estimated scf accuracy    <       0.00000005 Ry

     total magnetization       =     0.00 Bohr mag/cell
     absolute magnetization    =     0.01 Bohr mag/cell

     iteration #387     ecut=    90.00 Ry     beta= 0.20
     Davidson diagonalization with overlap
     ethr =  1.53E-11,  avg # of iterations =  2.1

     total cpu time spent up to now is    12076.9 secs

     total energy              =   -2217.30961912 Ry
     estimated scf accuracy    <       0.00000029 Ry

     total magnetization       =     0.00 Bohr mag/cell
     absolute magnetization    =     0.01 Bohr mag/cell

     iteration #388     ecut=    90.00 Ry     beta= 0.20
     Davidson diagonalization with overlap
     ethr =  1.53E-11,  avg # of iterations =  1.0

     total cpu time spent up to now is    12106.8 secs

     total energy              =   -2217.30961901 Ry
     estimated scf accuracy    <       0.00000006 Ry

     total magnetization       =     0.00 Bohr mag/cell
     absolute magnetization    =     0.01 Bohr mag/cell

     iteration #389     ecut=    90.00 Ry     beta= 0.20
     Davidson diagonalization with overlap
     ethr =  1.53E-11,  avg # of iterations =  2.4

     total cpu time spent up to now is    12147.2 secs

     total energy              =   -2217.30961908 Ry
     estimated scf accuracy    <       0.00000004 Ry

     total magnetization       =    -0.00 Bohr mag/cell
     absolute magnetization    =     0.00 Bohr mag/cell

     iteration #390     ecut=    90.00 Ry     beta= 0.20
     Davidson diagonalization with overlap
     ethr =  1.53E-11,  avg # of iterations =  1.1

     total cpu time spent up to now is    12177.4 secs

     total energy              =   -2217.30961908 Ry
     estimated scf accuracy    <       0.00000002 Ry

     total magnetization       =    -0.00 Bohr mag/cell
     absolute magnetization    =     0.00 Bohr mag/cell

     iteration #391     ecut=    90.00 Ry     beta= 0.20
     Davidson diagonalization with overlap
     ethr =  1.34E-11,  avg # of iterations =  1.0

     total cpu time spent up to now is    12207.1 secs

     total energy              =   -2217.30961908 Ry
     estimated scf accuracy    <       0.00000001 Ry

     total magnetization       =    -0.00 Bohr mag/cell
     absolute magnetization    =     0.00 Bohr mag/cell

     iteration #392     ecut=    90.00 Ry     beta= 0.20
     Davidson diagonalization with overlap
     ethr =  7.69E-12,  avg # of iterations =  1.0

     total cpu time spent up to now is    12237.1 secs

     total energy              =   -2217.30961908 Ry
     estimated scf accuracy    <       0.00000001 Ry

     total magnetization       =    -0.00 Bohr mag/cell
     absolute magnetization    =     0.00 Bohr mag/cell

     iteration #393     ecut=    90.00 Ry     beta= 0.20
     Davidson diagonalization with overlap
     ethr =  7.69E-12,  avg # of iterations =  1.0

     Magnetic moment per site:
     atom:    1    charge:   16.3635    magn:    0.0001    constr:    0.0000
     atom:    2    charge:   12.8992    magn:    0.0001    constr:    0.0000
     atom:    3    charge:   16.3635    magn:   -0.0000    constr:    0.0000
     atom:    4    charge:   12.8992    magn:   -0.0003    constr:    0.0000
     atom:    5    charge:   16.3636    magn:    0.0003    constr:    0.0000
     atom:    6    charge:   12.8991    magn:   -0.0004    constr:    0.0000
     atom:    7    charge:   16.3636    magn:   -0.0004    constr:    0.0000
     atom:    8    charge:   12.8991    magn:   -0.0002    constr:    0.0000

     total cpu time spent up to now is    12267.2 secs

     End of self-consistent calculation

     Number of k-points >= 100: set verbosity='high' to print the bands.

     the Fermi energy is    16.1388 ev

!    total energy              =   -2217.30961908 Ry
     estimated scf accuracy    <          9.4E-09 Ry
     smearing contrib. (-TS)   =      -0.02006236 Ry
     internal energy E=F+TS    =   -2217.28955672 Ry

     The total energy is F=E-TS. E is the sum of the following terms:
     one-electron contribution =   -1248.12441982 Ry
     hartree contribution      =     694.33905528 Ry
     xc contribution           =    -247.89428941 Ry
     ewald contribution        =   -1415.60990278 Ry

     total magnetization       =    -0.00 Bohr mag/cell
     absolute magnetization    =     0.00 Bohr mag/cell

     convergence has been achieved in 393 iterations

     Forces acting on atoms (cartesian axes, Ry/au):

     atom    1 type  1   force =    -0.00013581    0.00051193    0.00029442
     atom    2 type  2   force =    -0.00058421   -0.00080671   -0.00038545
     atom    3 type  1   force =    -0.00013570    0.00051219    0.00029427
     atom    4 type  2   force =    -0.00058426   -0.00080692   -0.00038538
     atom    5 type  1   force =    -0.00026566    0.00008830   -0.00003503
     atom    6 type  2   force =     0.00098598    0.00020704    0.00012595
     atom    7 type  1   force =    -0.00026623    0.00008704   -0.00003477
     atom    8 type  2   force =     0.00098589    0.00020714    0.00012599

     Total force =     0.002288     Total SCF correction =     0.000003


     Computing stress (Cartesian axis) and pressure

          total   stress  (Ry/bohr**3)                   (kbar)     P=       -7.14
  -0.00002606  -0.00000004  -0.00000002           -3.83       -0.01       -0.00
  -0.00000004  -0.00002559  -0.00000017           -0.01       -3.76       -0.02
  -0.00000002  -0.00000017  -0.00009402           -0.00       -0.02      -13.83


     BFGS Geometry Optimization
     Energy error            =      0.0E+00
     Gradient error          =      9.9E-04

     number of scf cycles    =   1
     number of bfgs steps    =   0

     energy   new            =   -2217.3096190815 Ry

     new trust radius        =       0.0010681779 bohr
     new conv_thr            =       0.0000000100 Ry


ATOMIC_POSITIONS (angstrom)
Ni           -0.0072553370        2.3254261081        0.0094527159
Mn            2.3104073765        0.0068283128        2.3385824440
Ni           -0.0072552829        0.0075262493        2.3389421386
Mn            2.3104073531        2.3247282011        0.0090929791
Ni            2.3181040473       -0.0038644965        0.0027334140
Mn           -0.0066617107        2.3252647700        2.3388530632
Ni            2.3181037472        2.3140348359        2.3322230528
Mn           -0.0066617631        0.0073648186        0.0093635847



     Writing output data file ./pwscf.save/
     NEW-OLD atomic charge density approx. for the potential

     Check: negative core charge=   -0.000015
     Generating pointlists ...

     total cpu time spent up to now is    12305.4 secs

     Self-consistent Calculation

     iteration #  1     ecut=    90.00 Ry     beta= 0.20
     Davidson diagonalization with overlap
     ethr =  1.00E-06,  avg # of iterations =  3.0

     Threshold (ethr) on eigenvalues was too large:
     Diagonalizing with lowered threshold

     Davidson diagonalization with overlap
     ethr =  8.95E-09,  avg # of iterations =  2.5

     total cpu time spent up to now is    12389.5 secs

     total energy              =   -2217.30962073 Ry
     estimated scf accuracy    <       0.00001187 Ry

     total magnetization       =    -0.00 Bohr mag/cell
     absolute magnetization    =     0.00 Bohr mag/cell

     iteration #  2     ecut=    90.00 Ry     beta= 0.20
     Davidson diagonalization with overlap
     ethr =  8.99E-09,  avg # of iterations =  2.7

     total cpu time spent up to now is    12426.6 secs

     total energy              =   -2217.30959856 Ry
     estimated scf accuracy    <       0.00204835 Ry

     total magnetization       =    -0.00 Bohr mag/cell
     absolute magnetization    =     0.01 Bohr mag/cell

     iteration #  3     ecut=    90.00 Ry     beta= 0.20
     Davidson diagonalization with overlap
     ethr =  8.99E-09,  avg # of iterations =  2.4

     total cpu time spent up to now is    12462.5 secs

     total energy              =   -2217.30962399 Ry
     estimated scf accuracy    <       0.00000585 Ry

     total magnetization       =    -0.00 Bohr mag/cell
     absolute magnetization    =     0.01 Bohr mag/cell

     iteration #  4     ecut=    90.00 Ry     beta= 0.20
     Davidson diagonalization with overlap
     ethr =  4.43E-09,  avg # of iterations =  1.0

     total cpu time spent up to now is    12492.7 secs

     total energy              =   -2217.30962431 Ry
     estimated scf accuracy    <       0.00000074 Ry

     total magnetization       =    -0.00 Bohr mag/cell
     absolute magnetization    =     0.01 Bohr mag/cell

     iteration #  5     ecut=    90.00 Ry     beta= 0.20
     Davidson diagonalization with overlap
     ethr =  5.63E-10,  avg # of iterations =  1.9

     total cpu time spent up to now is    12526.6 secs

     total energy              =   -2217.30962438 Ry
     estimated scf accuracy    <       0.00000067 Ry

     total magnetization       =    -0.01 Bohr mag/cell
     absolute magnetization    =     0.01 Bohr mag/cell

     iteration #  6     ecut=    90.00 Ry     beta= 0.20
     Davidson diagonalization with overlap
     ethr =  5.04E-10,  avg # of iterations =  1.0

     total cpu time spent up to now is    12557.1 secs

     total energy              =   -2217.30962435 Ry
     estimated scf accuracy    <       0.00000028 Ry

     total magnetization       =    -0.01 Bohr mag/cell
     absolute magnetization    =     0.01 Bohr mag/cell

     iteration #  7     ecut=    90.00 Ry     beta= 0.20
     Davidson diagonalization with overlap
     ethr =  2.13E-10,  avg # of iterations =  1.0

     total cpu time spent up to now is    12587.4 secs

     total energy              =   -2217.30962434 Ry
     estimated scf accuracy    <       0.00000025 Ry

     total magnetization       =    -0.00 Bohr mag/cell
     absolute magnetization    =     0.01 Bohr mag/cell

     iteration #  8     ecut=    90.00 Ry     beta= 0.20
     Davidson diagonalization with overlap
     ethr =  1.90E-10,  avg # of iterations =  1.0

     total cpu time spent up to now is    12619.3 secs

     total energy              =   -2217.30962432 Ry
     estimated scf accuracy    <       0.00000023 Ry

     total magnetization       =    -0.00 Bohr mag/cell
     absolute magnetization    =     0.01 Bohr mag/cell

     iteration #  9     ecut=    90.00 Ry     beta= 0.20
     Davidson diagonalization with overlap
     ethr =  1.76E-10,  avg # of iterations =  1.0

     total cpu time spent up to now is    12649.4 secs

     total energy              =   -2217.30962428 Ry
     estimated scf accuracy    <       0.00000247 Ry

     total magnetization       =    -0.00 Bohr mag/cell
     absolute magnetization    =     0.00 Bohr mag/cell

     iteration # 10     ecut=    90.00 Ry     beta= 0.20
     Davidson diagonalization with overlap
     ethr =  1.76E-10,  avg # of iterations =  1.0

     total cpu time spent up to now is    12679.6 secs

     total energy              =   -2217.30962430 Ry
     estimated scf accuracy    <       0.00000017 Ry

     total magnetization       =    -0.00 Bohr mag/cell
     absolute magnetization    =     0.00 Bohr mag/cell

     iteration # 11     ecut=    90.00 Ry     beta= 0.20
     Davidson diagonalization with overlap
     ethr =  1.26E-10,  avg # of iterations =  1.0

     total cpu time spent up to now is    12710.4 secs

     total energy              =   -2217.30962432 Ry
     estimated scf accuracy    <       0.00000001 Ry

     total magnetization       =     0.00 Bohr mag/cell
     absolute magnetization    =     0.00 Bohr mag/cell

     iteration # 12     ecut=    90.00 Ry     beta= 0.20
     Davidson diagonalization with overlap
     ethr =  7.68E-12,  avg # of iterations =  1.4

     total cpu time spent up to now is    12741.9 secs

     total energy              =   -2217.30962432 Ry
     estimated scf accuracy    <       0.00000001 Ry

     total magnetization       =     0.00 Bohr mag/cell
     absolute magnetization    =     0.00 Bohr mag/cell

     iteration # 13     ecut=    90.00 Ry     beta= 0.20
     Davidson diagonalization with overlap
     ethr =  7.68E-12,  avg # of iterations =  1.0

     Magnetic moment per site:
     atom:    1    charge:   16.3635    magn:    0.0002    constr:    0.0000
     atom:    2    charge:   12.8991    magn:    0.0006    constr:    0.0000
     atom:    3    charge:   16.3635    magn:    0.0000    constr:    0.0000
     atom:    4    charge:   12.8992    magn:    0.0000    constr:    0.0000
     atom:    5    charge:   16.3636    magn:    0.0003    constr:    0.0000
     atom:    6    charge:   12.8991    magn:   -0.0000    constr:    0.0000
     atom:    7    charge:   16.3636    magn:   -0.0003    constr:    0.0000
     atom:    8    charge:   12.8991    magn:    0.0002    constr:    0.0000

     total cpu time spent up to now is    12772.1 secs

     End of self-consistent calculation

     Number of k-points >= 100: set verbosity='high' to print the bands.

     the Fermi energy is    16.1388 ev

!    total energy              =   -2217.30962432 Ry
     estimated scf accuracy    <          9.4E-09 Ry
     smearing contrib. (-TS)   =      -0.02006307 Ry
     internal energy E=F+TS    =   -2217.28956125 Ry

     The total energy is F=E-TS. E is the sum of the following terms:
     one-electron contribution =   -1248.12073313 Ry
     hartree contribution      =     694.33742943 Ry
     xc contribution           =    -247.89428940 Ry
     ewald contribution        =   -1415.61196816 Ry

     total magnetization       =     0.00 Bohr mag/cell
     absolute magnetization    =     0.00 Bohr mag/cell

     convergence has been achieved in  13 iterations

     Forces acting on atoms (cartesian axes, Ry/au):

     atom    1 type  1   force =    -0.00021808    0.00050223    0.00029761
     atom    2 type  2   force =    -0.00058149   -0.00081851   -0.00039396
     atom    3 type  1   force =    -0.00021456    0.00050124    0.00029686
     atom    4 type  2   force =    -0.00058292   -0.00081694   -0.00039353
     atom    5 type  1   force =    -0.00018260    0.00009288   -0.00003691
     atom    6 type  2   force =     0.00098249    0.00022237    0.00013313
     atom    7 type  1   force =    -0.00018512    0.00009416   -0.00003620
     atom    8 type  2   force =     0.00098228    0.00022258    0.00013300

     Total force =     0.002292     Total SCF correction =     0.000260
     SCF correction compared to forces is large: reduce conv_thr to get better values


     Computing stress (Cartesian axis) and pressure

          total   stress  (Ry/bohr**3)                   (kbar)     P=       -7.04
  -0.00002537  -0.00000005  -0.00000003           -3.73       -0.01       -0.00
  -0.00000005  -0.00002491  -0.00000015           -0.01       -3.66       -0.02
  -0.00000003  -0.00000015  -0.00009329           -0.00       -0.02      -13.72

     Energy error            =      1.5E-04
     Gradient error          =      9.8E-04

     number of scf cycles    =   3
     number of bfgs steps    =   2

     energy   old            =   -2217.3097738342 Ry
     energy   new            =   -2217.3096243229 Ry

     CASE: energy  _new > energy  _old


 %%%%%%%%%%%%%%%%%%%%%%%%%%%%%%%%%%%%%%%%%%%%%%%%%%%%%%%%%%%%%%%%%%%%%%%%%%%%%%
     Error in routine bfgs (1):
     dE0s is positive which should never happen
 %%%%%%%%%%%%%%%%%%%%%%%%%%%%%%%%%%%%%%%%%%%%%%%%%%%%%%%%%%%%%%%%%%%%%%%%%%%%%%

     stopping ...
Abort(1) on node 0 (rank 0 in comm 0): application called MPI_Abort(MPI_COMM_WORLD, 1) - process 0
