 # File generated with Atomsk by kevin on 2022-03-20 17:48:12
 
           8  atoms
           2  atom types
 
      0.000000000000       4.635800000000  xlo xhi
      0.000000000000       4.635800000000  ylo yhi
      0.000000000000       4.658979000000  zlo zhi
 
Masses
 
            1   0.00000000              # XX
            2   0.00000000              # XX
 
Atoms # atomic
 
         1    4       -0.007183471415       0.007255207365       0.009296915054
         2    5        2.318244629384       2.313988777563       2.332241450995
         3    4       -0.007183471415       2.325155207365       2.338786415054
         4    5        2.318244629384      -0.003911222437       0.002751950995
         5    4        2.310716528585       2.325155207365       0.009296915054
         6    5       -0.007183471415       0.007255207365       2.338786415054
         7    4        2.310716528585       0.007255207365       2.338786415054
         8    5       -0.007183471415       2.325155207365       0.009296915054
