 # File generated with Atomsk by kevin on 2022-03-20 17:48:12
 
           8  atoms
           2  atom types
 
      0.000000000000       4.635800000000  xlo xhi
      0.000000000000       4.658979000000  ylo yhi
      0.000000000000       4.635800000000  zlo zhi
 
Masses
 
            1   0.00000000              # XX
            2   0.00000000              # XX
 
Atoms # atomic
 
         1    4        0.006762268244      -0.009169637956      -0.001036989526
         2    5        2.315831773551       2.334204235510       2.325071868067
         3    4        0.006762268244       2.320319862044       2.316863010474
         4    5        2.315831773551       0.004714735510       0.007171868067
         5    4        2.324662268244       2.320319862044      -0.001036989526
         6    5        0.006762268244      -0.009169637956       2.316863010474
         7    4        2.324662268244      -0.009169637956       2.316863010474
         8    5        0.006762268244       2.320319862044      -0.001036989526
