 # File generated with Atomsk by kevin on 2022-03-20 17:48:12
 
           8  atoms
           2  atom types
 
      0.000000000000       4.635800000000  xlo xhi
      0.000000000000       4.635800000000  ylo yhi
      0.000000000000       4.635800000000  zlo zhi
      0.023179000000       0.000000000000       0.000000000000  xy xz yz
 
Masses
 
            1   0.00000000              # XX
            2   0.00000000              # XX
 
Atoms # atomic
 
         1    4       -0.006350630440      -0.007821486854       0.008487572503
         2    5        2.327193596616       2.315095653983       2.318308165403
         3    4        0.005238869560       2.310078513146       2.326387572503
         4    5        2.315604096616      -0.002804346017       0.000408165403
         5    4        2.323138869560       2.310078513146       0.008487572503
         6    5       -0.006350630440      -0.007821486854       2.326387572503
         7    4        2.311549369560      -0.007821486854       2.326387572503
         8    5        0.005238869560       2.310078513146       0.008487572503
