
     Program PWSCF v.6.7MaX starts on 10Feb2022 at 21:27:11 

     This program is part of the open-source Quantum ESPRESSO suite
     for quantum simulation of materials; please cite
         "P. Giannozzi et al., J. Phys.:Condens. Matter 21 395502 (2009);
         "P. Giannozzi et al., J. Phys.:Condens. Matter 29 465901 (2017);
          URL http://www.quantum-espresso.org", 
     in publications or presentations arising from this work. More details at
     http://www.quantum-espresso.org/quote

     Parallel version (MPI), running on    24 processors

     MPI processes distributed on     1 nodes
     R & G space division:  proc/nbgrp/npool/nimage =      24
     Reading input from /home/kevin/QE_CoCrFeMnNi/CoCrFeMnNi/Opt/binary/Opt-B1-FeNi/Mix/MD/600K_0.0001Gpa-B1-FeNi/600K_0.0001Gpa-B1-FeNi.in

     Current dimensions of program PWSCF are:
     Max number of different atomic species (ntypx) = 10
     Max number of k-points (npk) =  40000
     Max angular momentum in pseudopotentials (lmaxx) =  3

     File ./pwscf.md deleted, as requested
     file Fe.pbe-spn-kjpaw_psl.0.2.1.UPF: wavefunction(s)  3D renormalized

     Subspace diagonalization in iterative solution of the eigenvalue problem:
     a serial algorithm will be used

     Found symmetry operation: I + (  0.0000  0.5000 -0.5000)
     This is a supercell, fractional translations are disabled

     Parallelization info
     --------------------
     sticks:   dense  smooth     PW     G-vecs:    dense   smooth      PW
     Min         271      90     24                16495     3174     458
     Max         273      91     25                16498     3179     463
     Sum        6525    2177    593               395903    76237   11067



     bravais-lattice index     =            0
     lattice parameter (alat)  =       8.7071  a.u.
     unit-cell volume          =     660.1170 (a.u.)^3
     number of atoms/cell      =            8
     number of atomic types    =            2
     number of electrons       =       136.00
     number of Kohn-Sham states=           82
     kinetic-energy cutoff     =      90.0000  Ry
     charge density cutoff     =    1080.0000  Ry
     scf convergence threshold =      1.0E-08
     mixing beta               =       0.2000
     number of iterations used =            4  plain     mixing
     energy convergence thresh.=      0.0E+00
     force convergence thresh. =      0.0E+00
     press convergence thresh. =      0.0E+00
     Exchange-correlation= SLA  PW   PBX  PBC
                           (   1   4   3   4   0   0   0)
     nstep                     =          102


     celldm(1)=   8.707102  celldm(2)=   0.000000  celldm(3)=   0.000000
     celldm(4)=   0.000000  celldm(5)=   0.000000  celldm(6)=   0.000000

     crystal axes: (cart. coord. in units of alat)
               a(1) = (   1.000000   0.000000   0.000000 )  
               a(2) = (   0.000000   1.000000   0.000000 )  
               a(3) = (   0.000000   0.000000   1.000000 )  

     reciprocal axes: (cart. coord. in units 2 pi/alat)
               b(1) = (  1.000000  0.000000  0.000000 )  
               b(2) = (  0.000000  1.000000  0.000000 )  
               b(3) = (  0.000000  0.000000  1.000000 )  


     PseudoPot. # 1 for Ni read from file:
     /opt/QEpot/SSSP_efficiency_pseudos/ni_pbe_v1.4.uspp.F.UPF
     MD5 check sum: 1ee80287db30b12d2bc1f57a5b5d6409
     Pseudo is Ultrasoft + core correction, Zval = 18.0
     Generated by new atomic code, or converted to UPF format
     Using radial grid of  865 points,  6 beta functions with: 
                l(1) =   0
                l(2) =   0
                l(3) =   1
                l(4) =   1
                l(5) =   2
                l(6) =   2
     Q(r) pseudized with 10 coefficients,  rinner =    0.980   0.980   0.980
                                                       0.980   0.980

     PseudoPot. # 2 for Fe read from file:
     /opt/QEpot/SSSP_efficiency_pseudos/Fe.pbe-spn-kjpaw_psl.0.2.1.UPF
     MD5 check sum: e86618425769142926afa95317d90200
     Pseudo is Projector augmented-wave + core cor, Zval = 16.0
     Generated using "atomic" code by A. Dal Corso  v.5.0.99 svn rev. 10869
     Shape of augmentation charge: PSQ
     Using radial grid of 1191 points,  6 beta functions with: 
                l(1) =   0
                l(2) =   0
                l(3) =   1
                l(4) =   1
                l(5) =   2
                l(6) =   2
     Q(r) pseudized with 0 coefficients 


     atomic species   valence    mass     pseudopotential
        Ni            18.00    58.69300     Ni( 1.00)
        Fe            16.00    55.84500     Fe( 1.00)

      cell mass =  34.81538 AMU 

     Starting magnetic structure 
     atomic species   magnetization
        Ni           0.000
        Fe          -0.000

     No symmetry found



   Cartesian axes

     site n.     atom                  positions (alat units)
         1           Ni  tau(   1) = (   0.0000000   0.5000000   0.0000000  )
         2           Fe  tau(   2) = (   0.5000000   0.0000000   0.5000000  )
         3           Ni  tau(   3) = (   0.0000000   0.0000000   0.5000000  )
         4           Fe  tau(   4) = (   0.5000000   0.5000000   0.0000000  )
         5           Ni  tau(   5) = (   0.5000000   0.0000000   0.0000000  )
         6           Fe  tau(   6) = (   0.0000000   0.5000000   0.5000000  )
         7           Ni  tau(   7) = (   0.5000000   0.5000000   0.5000000  )
         8           Fe  tau(   8) = (   0.0000000   0.0000000   0.0000000  )

     number of k points=    63  Gaussian smearing, width (Ry)=  0.0100
                       cart. coord. in units 2pi/alat
        k(    1) = (   0.0000000   0.0000000   0.0000000), wk =   0.0080000
        k(    2) = (   0.0000000   0.0000000   0.2000000), wk =   0.0160000
        k(    3) = (   0.0000000   0.0000000   0.4000000), wk =   0.0160000
        k(    4) = (   0.0000000   0.2000000   0.0000000), wk =   0.0160000
        k(    5) = (   0.0000000   0.2000000   0.2000000), wk =   0.0160000
        k(    6) = (   0.0000000   0.2000000   0.4000000), wk =   0.0160000
        k(    7) = (   0.0000000   0.2000000  -0.4000000), wk =   0.0160000
        k(    8) = (   0.0000000   0.2000000  -0.2000000), wk =   0.0160000
        k(    9) = (   0.0000000   0.4000000   0.0000000), wk =   0.0160000
        k(   10) = (   0.0000000   0.4000000   0.2000000), wk =   0.0160000
        k(   11) = (   0.0000000   0.4000000   0.4000000), wk =   0.0160000
        k(   12) = (   0.0000000   0.4000000  -0.4000000), wk =   0.0160000
        k(   13) = (   0.0000000   0.4000000  -0.2000000), wk =   0.0160000
        k(   14) = (   0.2000000   0.0000000   0.0000000), wk =   0.0160000
        k(   15) = (   0.2000000   0.0000000   0.2000000), wk =   0.0160000
        k(   16) = (   0.2000000   0.0000000   0.4000000), wk =   0.0160000
        k(   17) = (   0.2000000   0.0000000  -0.4000000), wk =   0.0160000
        k(   18) = (   0.2000000   0.0000000  -0.2000000), wk =   0.0160000
        k(   19) = (   0.2000000   0.2000000   0.0000000), wk =   0.0160000
        k(   20) = (   0.2000000   0.2000000   0.2000000), wk =   0.0160000
        k(   21) = (   0.2000000   0.2000000   0.4000000), wk =   0.0160000
        k(   22) = (   0.2000000   0.2000000  -0.4000000), wk =   0.0160000
        k(   23) = (   0.2000000   0.2000000  -0.2000000), wk =   0.0160000
        k(   24) = (   0.2000000   0.4000000   0.0000000), wk =   0.0160000
        k(   25) = (   0.2000000   0.4000000   0.2000000), wk =   0.0160000
        k(   26) = (   0.2000000   0.4000000   0.4000000), wk =   0.0160000
        k(   27) = (   0.2000000   0.4000000  -0.4000000), wk =   0.0160000
        k(   28) = (   0.2000000   0.4000000  -0.2000000), wk =   0.0160000
        k(   29) = (   0.2000000  -0.4000000   0.0000000), wk =   0.0160000
        k(   30) = (   0.2000000  -0.4000000   0.2000000), wk =   0.0160000
        k(   31) = (   0.2000000  -0.4000000   0.4000000), wk =   0.0160000
        k(   32) = (   0.2000000  -0.4000000  -0.4000000), wk =   0.0160000
        k(   33) = (   0.2000000  -0.4000000  -0.2000000), wk =   0.0160000
        k(   34) = (   0.2000000  -0.2000000   0.0000000), wk =   0.0160000
        k(   35) = (   0.2000000  -0.2000000   0.2000000), wk =   0.0160000
        k(   36) = (   0.2000000  -0.2000000   0.4000000), wk =   0.0160000
        k(   37) = (   0.2000000  -0.2000000  -0.4000000), wk =   0.0160000
        k(   38) = (   0.2000000  -0.2000000  -0.2000000), wk =   0.0160000
        k(   39) = (   0.4000000   0.0000000   0.0000000), wk =   0.0160000
        k(   40) = (   0.4000000   0.0000000   0.2000000), wk =   0.0160000
        k(   41) = (   0.4000000   0.0000000   0.4000000), wk =   0.0160000
        k(   42) = (   0.4000000   0.0000000  -0.4000000), wk =   0.0160000
        k(   43) = (   0.4000000   0.0000000  -0.2000000), wk =   0.0160000
        k(   44) = (   0.4000000   0.2000000   0.0000000), wk =   0.0160000
        k(   45) = (   0.4000000   0.2000000   0.2000000), wk =   0.0160000
        k(   46) = (   0.4000000   0.2000000   0.4000000), wk =   0.0160000
        k(   47) = (   0.4000000   0.2000000  -0.4000000), wk =   0.0160000
        k(   48) = (   0.4000000   0.2000000  -0.2000000), wk =   0.0160000
        k(   49) = (   0.4000000   0.4000000   0.0000000), wk =   0.0160000
        k(   50) = (   0.4000000   0.4000000   0.2000000), wk =   0.0160000
        k(   51) = (   0.4000000   0.4000000   0.4000000), wk =   0.0160000
        k(   52) = (   0.4000000   0.4000000  -0.4000000), wk =   0.0160000
        k(   53) = (   0.4000000   0.4000000  -0.2000000), wk =   0.0160000
        k(   54) = (   0.4000000  -0.4000000   0.0000000), wk =   0.0160000
        k(   55) = (   0.4000000  -0.4000000   0.2000000), wk =   0.0160000
        k(   56) = (   0.4000000  -0.4000000   0.4000000), wk =   0.0160000
        k(   57) = (   0.4000000  -0.4000000  -0.4000000), wk =   0.0160000
        k(   58) = (   0.4000000  -0.4000000  -0.2000000), wk =   0.0160000
        k(   59) = (   0.4000000  -0.2000000   0.0000000), wk =   0.0160000
        k(   60) = (   0.4000000  -0.2000000   0.2000000), wk =   0.0160000
        k(   61) = (   0.4000000  -0.2000000   0.4000000), wk =   0.0160000
        k(   62) = (   0.4000000  -0.2000000  -0.4000000), wk =   0.0160000
        k(   63) = (   0.4000000  -0.2000000  -0.2000000), wk =   0.0160000

     Dense  grid:   395903 G-vectors     FFT dimensions: (  96,  96,  96)

     Smooth grid:    76237 G-vectors     FFT dimensions: (  54,  54,  54)

     Estimated max dynamical RAM per process >     137.52 MB

     Estimated total dynamical RAM >       3.22 GB

     Check: negative core charge=   -0.000010
     Generating pointlists ...
     new r_m :   0.2063 (alat units)  1.7958 (a.u.) for type    1
     new r_m :   0.2063 (alat units)  1.7958 (a.u.) for type    2

     Initial potential from superposition of free atoms

     starting charge  127.99825, renormalised to  136.00000
     Starting wfcs are  104 randomized atomic wfcs
     Checking if some PAW data can be deallocated... 

     total cpu time spent up to now is       14.4 secs

     Self-consistent Calculation

     iteration #  1     ecut=    90.00 Ry     beta= 0.20
     CG style diagonalization
     ethr =  1.00E-02,  avg # of iterations =  3.0

     total cpu time spent up to now is       47.9 secs

     total energy              =   -2667.38752966 Ry
     estimated scf accuracy    <     112.72383900 Ry

     total magnetization       =    -0.00 Bohr mag/cell
     absolute magnetization    =     0.03 Bohr mag/cell

     iteration #  2     ecut=    90.00 Ry     beta= 0.20
     CG style diagonalization
     ethr =  1.00E-02,  avg # of iterations =  4.3

     total cpu time spent up to now is       91.6 secs

     total energy              =   -2686.19460766 Ry
     estimated scf accuracy    <      66.42582556 Ry

     total magnetization       =     0.00 Bohr mag/cell
     absolute magnetization    =     0.03 Bohr mag/cell

     iteration #  3     ecut=    90.00 Ry     beta= 0.20
     CG style diagonalization
     ethr =  1.00E-02,  avg # of iterations =  3.5

     total cpu time spent up to now is      127.6 secs

     total energy              =   -2687.95856983 Ry
     estimated scf accuracy    <       6.07022154 Ry

     total magnetization       =    -0.03 Bohr mag/cell
     absolute magnetization    =     0.07 Bohr mag/cell

     iteration #  4     ecut=    90.00 Ry     beta= 0.20
     CG style diagonalization
     ethr =  4.46E-03,  avg # of iterations =  3.3

     total cpu time spent up to now is      161.8 secs

     total energy              =   -2687.25413996 Ry
     estimated scf accuracy    <      26.30307562 Ry

     total magnetization       =    -0.03 Bohr mag/cell
     absolute magnetization    =     0.04 Bohr mag/cell

     iteration #  5     ecut=    90.00 Ry     beta= 0.20
     CG style diagonalization
     ethr =  4.46E-03,  avg # of iterations =  3.2

     total cpu time spent up to now is      195.2 secs

     total energy              =   -2689.67549394 Ry
     estimated scf accuracy    <       4.14664627 Ry

     total magnetization       =    -0.01 Bohr mag/cell
     absolute magnetization    =     0.02 Bohr mag/cell

     iteration #  6     ecut=    90.00 Ry     beta= 0.20
     CG style diagonalization
     ethr =  3.05E-03,  avg # of iterations =  3.0

     total cpu time spent up to now is      226.4 secs

     total energy              =   -2689.49199350 Ry
     estimated scf accuracy    <       4.42406502 Ry

     total magnetization       =    -0.02 Bohr mag/cell
     absolute magnetization    =     0.02 Bohr mag/cell

     iteration #  7     ecut=    90.00 Ry     beta= 0.20
     CG style diagonalization
     ethr =  3.05E-03,  avg # of iterations =  3.0

     total cpu time spent up to now is      257.7 secs

     total energy              =   -2689.49119575 Ry
     estimated scf accuracy    <       0.86562587 Ry

     total magnetization       =    -0.02 Bohr mag/cell
     absolute magnetization    =     0.03 Bohr mag/cell

     iteration #  8     ecut=    90.00 Ry     beta= 0.20
     CG style diagonalization
     ethr =  6.36E-04,  avg # of iterations =  3.0

     total cpu time spent up to now is      288.9 secs

     total energy              =   -2689.52469183 Ry
     estimated scf accuracy    <       0.05139541 Ry

     total magnetization       =    -0.03 Bohr mag/cell
     absolute magnetization    =     0.03 Bohr mag/cell

     iteration #  9     ecut=    90.00 Ry     beta= 0.20
     CG style diagonalization
     c_bands:  1 eigenvalues not converged
     c_bands:  1 eigenvalues not converged
     c_bands:  2 eigenvalues not converged
     c_bands:  1 eigenvalues not converged
     c_bands:  1 eigenvalues not converged
     c_bands:  1 eigenvalues not converged
     c_bands:  1 eigenvalues not converged
     c_bands:  1 eigenvalues not converged
     ethr =  3.78E-05,  avg # of iterations =  4.0

     total cpu time spent up to now is      329.8 secs

     total energy              =   -2689.53906451 Ry
     estimated scf accuracy    <       0.03836430 Ry

     total magnetization       =    -0.03 Bohr mag/cell
     absolute magnetization    =     0.03 Bohr mag/cell

     iteration # 10     ecut=    90.00 Ry     beta= 0.20
     CG style diagonalization
     c_bands:  1 eigenvalues not converged
     c_bands:  1 eigenvalues not converged
     c_bands:  1 eigenvalues not converged
     c_bands:  1 eigenvalues not converged
     ethr =  2.82E-05,  avg # of iterations =  3.8

     total cpu time spent up to now is      368.4 secs

     total energy              =   -2689.54860823 Ry
     estimated scf accuracy    <       0.03236142 Ry

     total magnetization       =    -0.03 Bohr mag/cell
     absolute magnetization    =     0.04 Bohr mag/cell

     iteration # 11     ecut=    90.00 Ry     beta= 0.20
     CG style diagonalization
     c_bands:  1 eigenvalues not converged
     ethr =  2.38E-05,  avg # of iterations =  3.1

     total cpu time spent up to now is      400.2 secs

     total energy              =   -2689.54938346 Ry
     estimated scf accuracy    <       0.02724528 Ry

     total magnetization       =    -0.04 Bohr mag/cell
     absolute magnetization    =     0.04 Bohr mag/cell

     iteration # 12     ecut=    90.00 Ry     beta= 0.20
     CG style diagonalization
     ethr =  2.00E-05,  avg # of iterations =  3.0

     total cpu time spent up to now is      431.4 secs

     total energy              =   -2689.54891181 Ry
     estimated scf accuracy    <       0.03721226 Ry

     total magnetization       =    -0.05 Bohr mag/cell
     absolute magnetization    =     0.06 Bohr mag/cell

     iteration # 13     ecut=    90.00 Ry     beta= 0.20
     CG style diagonalization
     ethr =  2.00E-05,  avg # of iterations =  3.0

     total cpu time spent up to now is      462.6 secs

     total energy              =   -2689.54668654 Ry
     estimated scf accuracy    <       0.13767136 Ry

     total magnetization       =    -0.05 Bohr mag/cell
     absolute magnetization    =     0.06 Bohr mag/cell

     iteration # 14     ecut=    90.00 Ry     beta= 0.20
     CG style diagonalization
     ethr =  2.00E-05,  avg # of iterations =  3.0

     total cpu time spent up to now is      493.8 secs

     total energy              =   -2689.54759325 Ry
     estimated scf accuracy    <       0.15518152 Ry

     total magnetization       =    -0.08 Bohr mag/cell
     absolute magnetization    =     0.09 Bohr mag/cell

     iteration # 15     ecut=    90.00 Ry     beta= 0.20
     CG style diagonalization
     ethr =  2.00E-05,  avg # of iterations =  3.0

     total cpu time spent up to now is      525.0 secs

     total energy              =   -2689.55018331 Ry
     estimated scf accuracy    <       0.01363658 Ry

     total magnetization       =    -0.06 Bohr mag/cell
     absolute magnetization    =     0.08 Bohr mag/cell

     iteration # 16     ecut=    90.00 Ry     beta= 0.20
     CG style diagonalization
     c_bands:  1 eigenvalues not converged
     c_bands:  1 eigenvalues not converged
     c_bands:  1 eigenvalues not converged
     c_bands:  1 eigenvalues not converged
     c_bands:  1 eigenvalues not converged
     ethr =  1.00E-05,  avg # of iterations =  3.0

     total cpu time spent up to now is      556.4 secs

     total energy              =   -2689.55011294 Ry
     estimated scf accuracy    <       0.02150510 Ry

     total magnetization       =    -0.08 Bohr mag/cell
     absolute magnetization    =     0.10 Bohr mag/cell

     iteration # 17     ecut=    90.00 Ry     beta= 0.20
     CG style diagonalization
     c_bands:  1 eigenvalues not converged
     ethr =  1.00E-05,  avg # of iterations =  3.0

     total cpu time spent up to now is      587.6 secs

     total energy              =   -2689.55026940 Ry
     estimated scf accuracy    <       0.01642974 Ry

     total magnetization       =    -0.08 Bohr mag/cell
     absolute magnetization    =     0.10 Bohr mag/cell

     iteration # 18     ecut=    90.00 Ry     beta= 0.20
     CG style diagonalization
     c_bands:  1 eigenvalues not converged
     ethr =  1.00E-05,  avg # of iterations =  3.0

     total cpu time spent up to now is      618.8 secs

     total energy              =   -2689.55026889 Ry
     estimated scf accuracy    <       0.02062002 Ry

     total magnetization       =    -0.10 Bohr mag/cell
     absolute magnetization    =     0.12 Bohr mag/cell

     iteration # 19     ecut=    90.00 Ry     beta= 0.20
     CG style diagonalization
     ethr =  1.00E-05,  avg # of iterations =  3.0

     total cpu time spent up to now is      649.9 secs

     total energy              =   -2689.55039342 Ry
     estimated scf accuracy    <       0.00557923 Ry

     total magnetization       =    -0.10 Bohr mag/cell
     absolute magnetization    =     0.12 Bohr mag/cell

     iteration # 20     ecut=    90.00 Ry     beta= 0.20
     CG style diagonalization
     c_bands:  1 eigenvalues not converged
     c_bands:  1 eigenvalues not converged
     c_bands:  1 eigenvalues not converged
     c_bands:  1 eigenvalues not converged
     ethr =  4.10E-06,  avg # of iterations =  3.0

     total cpu time spent up to now is      681.4 secs

     total energy              =   -2689.55008879 Ry
     estimated scf accuracy    <       0.03049798 Ry

     total magnetization       =    -0.14 Bohr mag/cell
     absolute magnetization    =     0.17 Bohr mag/cell

     iteration # 21     ecut=    90.00 Ry     beta= 0.20
     CG style diagonalization
     c_bands:  1 eigenvalues not converged
     ethr =  4.10E-06,  avg # of iterations =  3.0

     total cpu time spent up to now is      712.5 secs

     total energy              =   -2689.55058284 Ry
     estimated scf accuracy    <       0.00472561 Ry

     total magnetization       =    -0.14 Bohr mag/cell
     absolute magnetization    =     0.17 Bohr mag/cell

     iteration # 22     ecut=    90.00 Ry     beta= 0.20
     CG style diagonalization
     c_bands:  1 eigenvalues not converged
     c_bands:  1 eigenvalues not converged
     ethr =  3.47E-06,  avg # of iterations =  3.0

     total cpu time spent up to now is      743.8 secs

     total energy              =   -2689.55056254 Ry
     estimated scf accuracy    <       0.01421758 Ry

     total magnetization       =    -0.15 Bohr mag/cell
     absolute magnetization    =     0.18 Bohr mag/cell

     iteration # 23     ecut=    90.00 Ry     beta= 0.20
     CG style diagonalization
     ethr =  3.47E-06,  avg # of iterations =  3.0

     total cpu time spent up to now is      774.9 secs

     total energy              =   -2689.55068609 Ry
     estimated scf accuracy    <       0.00117310 Ry

     total magnetization       =    -0.16 Bohr mag/cell
     absolute magnetization    =     0.19 Bohr mag/cell

     iteration # 24     ecut=    90.00 Ry     beta= 0.20
     CG style diagonalization
     c_bands:  1 eigenvalues not converged
     c_bands:  1 eigenvalues not converged
     c_bands:  1 eigenvalues not converged
     c_bands:  1 eigenvalues not converged
     ethr =  8.63E-07,  avg # of iterations =  3.0

     total cpu time spent up to now is      806.3 secs

     total energy              =   -2689.55036851 Ry
     estimated scf accuracy    <       0.03018368 Ry

     total magnetization       =    -0.19 Bohr mag/cell
     absolute magnetization    =     0.23 Bohr mag/cell

     iteration # 25     ecut=    90.00 Ry     beta= 0.20
     CG style diagonalization
     ethr =  8.63E-07,  avg # of iterations =  3.0

     total cpu time spent up to now is      837.4 secs

     total energy              =   -2689.55070856 Ry
     estimated scf accuracy    <       0.00338098 Ry

     total magnetization       =    -0.20 Bohr mag/cell
     absolute magnetization    =     0.24 Bohr mag/cell

     iteration # 26     ecut=    90.00 Ry     beta= 0.20
     CG style diagonalization
     ethr =  8.63E-07,  avg # of iterations =  3.0

     total cpu time spent up to now is      868.5 secs

     total energy              =   -2689.55069295 Ry
     estimated scf accuracy    <       0.00845776 Ry

     total magnetization       =    -0.22 Bohr mag/cell
     absolute magnetization    =     0.26 Bohr mag/cell

     iteration # 27     ecut=    90.00 Ry     beta= 0.20
     CG style diagonalization
     c_bands:  1 eigenvalues not converged
     ethr =  8.63E-07,  avg # of iterations =  3.0

     total cpu time spent up to now is      899.6 secs

     total energy              =   -2689.55081755 Ry
     estimated scf accuracy    <       0.00076169 Ry

     total magnetization       =    -0.24 Bohr mag/cell
     absolute magnetization    =     0.28 Bohr mag/cell

     iteration # 28     ecut=    90.00 Ry     beta= 0.20
     CG style diagonalization
     ethr =  5.60E-07,  avg # of iterations =  3.0

     total cpu time spent up to now is      930.7 secs

     total energy              =   -2689.55076281 Ry
     estimated scf accuracy    <       0.00671772 Ry

     total magnetization       =    -0.26 Bohr mag/cell
     absolute magnetization    =     0.31 Bohr mag/cell

     iteration # 29     ecut=    90.00 Ry     beta= 0.20
     CG style diagonalization
     c_bands:  1 eigenvalues not converged
     ethr =  5.60E-07,  avg # of iterations =  3.0

     total cpu time spent up to now is      961.7 secs

     total energy              =   -2689.55084462 Ry
     estimated scf accuracy    <       0.00167810 Ry

     total magnetization       =    -0.29 Bohr mag/cell
     absolute magnetization    =     0.35 Bohr mag/cell

     iteration # 30     ecut=    90.00 Ry     beta= 0.20
     CG style diagonalization
     ethr =  5.60E-07,  avg # of iterations =  3.0

     total cpu time spent up to now is      992.8 secs

     total energy              =   -2689.55084976 Ry
     estimated scf accuracy    <       0.00359685 Ry

     total magnetization       =    -0.31 Bohr mag/cell
     absolute magnetization    =     0.37 Bohr mag/cell

     iteration # 31     ecut=    90.00 Ry     beta= 0.20
     CG style diagonalization
     ethr =  5.60E-07,  avg # of iterations =  3.0

     total cpu time spent up to now is     1023.8 secs

     total energy              =   -2689.55081782 Ry
     estimated scf accuracy    <       0.00621587 Ry

     total magnetization       =    -0.33 Bohr mag/cell
     absolute magnetization    =     0.39 Bohr mag/cell

     iteration # 32     ecut=    90.00 Ry     beta= 0.20
     CG style diagonalization
     ethr =  5.60E-07,  avg # of iterations =  3.0

     total cpu time spent up to now is     1054.8 secs

     total energy              =   -2689.55092650 Ry
     estimated scf accuracy    <       0.00302707 Ry

     total magnetization       =    -0.35 Bohr mag/cell
     absolute magnetization    =     0.41 Bohr mag/cell

     iteration # 33     ecut=    90.00 Ry     beta= 0.20
     CG style diagonalization
     ethr =  5.60E-07,  avg # of iterations =  3.0

     total cpu time spent up to now is     1085.8 secs

     total energy              =   -2689.55091892 Ry
     estimated scf accuracy    <       0.00293700 Ry

     total magnetization       =    -0.40 Bohr mag/cell
     absolute magnetization    =     0.48 Bohr mag/cell

     iteration # 34     ecut=    90.00 Ry     beta= 0.20
     CG style diagonalization
     ethr =  5.60E-07,  avg # of iterations =  3.0

     total cpu time spent up to now is     1116.9 secs

     total energy              =   -2689.55065243 Ry
     estimated scf accuracy    <       0.03284002 Ry

     total magnetization       =    -0.43 Bohr mag/cell
     absolute magnetization    =     0.51 Bohr mag/cell

     iteration # 35     ecut=    90.00 Ry     beta= 0.20
     CG style diagonalization
     ethr =  5.60E-07,  avg # of iterations =  3.0

     total cpu time spent up to now is     1147.9 secs

     total energy              =   -2689.55092209 Ry
     estimated scf accuracy    <       0.00398531 Ry

     total magnetization       =    -0.46 Bohr mag/cell
     absolute magnetization    =     0.54 Bohr mag/cell

     iteration # 36     ecut=    90.00 Ry     beta= 0.20
     CG style diagonalization
     ethr =  5.60E-07,  avg # of iterations =  3.1

     total cpu time spent up to now is     1179.5 secs

     total energy              =   -2689.55042969 Ry
     estimated scf accuracy    <       0.05560523 Ry

     total magnetization       =    -0.48 Bohr mag/cell
     absolute magnetization    =     0.57 Bohr mag/cell

     iteration # 37     ecut=    90.00 Ry     beta= 0.20
     CG style diagonalization
     ethr =  5.60E-07,  avg # of iterations =  3.1

     total cpu time spent up to now is     1211.5 secs

     total energy              =   -2689.55071887 Ry
     estimated scf accuracy    <       0.02435242 Ry

     total magnetization       =    -0.51 Bohr mag/cell
     absolute magnetization    =     0.61 Bohr mag/cell

     iteration # 38     ecut=    90.00 Ry     beta= 0.20
     CG style diagonalization
     ethr =  5.60E-07,  avg # of iterations =  3.1

     total cpu time spent up to now is     1243.6 secs

     total energy              =   -2689.55091350 Ry
     estimated scf accuracy    <       0.02228116 Ry

     total magnetization       =    -0.57 Bohr mag/cell
     absolute magnetization    =     0.67 Bohr mag/cell

     iteration # 39     ecut=    90.00 Ry     beta= 0.20
     CG style diagonalization
     ethr =  5.60E-07,  avg # of iterations =  3.3

     total cpu time spent up to now is     1277.4 secs

     total energy              =   -2689.55121389 Ry
     estimated scf accuracy    <       0.00972385 Ry

     total magnetization       =    -0.64 Bohr mag/cell
     absolute magnetization    =     0.76 Bohr mag/cell

     iteration # 40     ecut=    90.00 Ry     beta= 0.20
     CG style diagonalization
     c_bands:  1 eigenvalues not converged
     ethr =  5.60E-07,  avg # of iterations =  3.0

     total cpu time spent up to now is     1308.6 secs

     total energy              =   -2689.55103370 Ry
     estimated scf accuracy    <       0.02576296 Ry

     total magnetization       =    -0.65 Bohr mag/cell
     absolute magnetization    =     0.78 Bohr mag/cell

     iteration # 41     ecut=    90.00 Ry     beta= 0.20
     CG style diagonalization
     c_bands:  1 eigenvalues not converged
     ethr =  5.60E-07,  avg # of iterations =  3.5

     total cpu time spent up to now is     1344.0 secs

     total energy              =   -2689.55050214 Ry
     estimated scf accuracy    <       0.05406295 Ry

     total magnetization       =    -0.76 Bohr mag/cell
     absolute magnetization    =     0.91 Bohr mag/cell

     iteration # 42     ecut=    90.00 Ry     beta= 0.20
     CG style diagonalization
     ethr =  5.60E-07,  avg # of iterations =  3.3

     total cpu time spent up to now is     1378.1 secs

     total energy              =   -2689.55072388 Ry
     estimated scf accuracy    <       0.04860897 Ry

     total magnetization       =    -0.79 Bohr mag/cell
     absolute magnetization    =     0.94 Bohr mag/cell

     iteration # 43     ecut=    90.00 Ry     beta= 0.20
     CG style diagonalization
     c_bands:  1 eigenvalues not converged
     ethr =  5.60E-07,  avg # of iterations =  3.5

     total cpu time spent up to now is     1413.9 secs

     total energy              =   -2689.54822736 Ry
     estimated scf accuracy    <       0.25223755 Ry

     total magnetization       =    -0.76 Bohr mag/cell
     absolute magnetization    =     0.95 Bohr mag/cell

     iteration # 44     ecut=    90.00 Ry     beta= 0.20
     CG style diagonalization
     c_bands:  1 eigenvalues not converged
     ethr =  5.60E-07,  avg # of iterations =  3.4

     total cpu time spent up to now is     1448.7 secs

     total energy              =   -2689.55187981 Ry
     estimated scf accuracy    <       0.01949069 Ry

     total magnetization       =    -0.89 Bohr mag/cell
     absolute magnetization    =     1.06 Bohr mag/cell

     iteration # 45     ecut=    90.00 Ry     beta= 0.20
     CG style diagonalization
     ethr =  5.60E-07,  avg # of iterations =  3.5

     total cpu time spent up to now is     1484.3 secs

     total energy              =   -2689.55019697 Ry
     estimated scf accuracy    <       0.08775930 Ry

     total magnetization       =    -1.04 Bohr mag/cell
     absolute magnetization    =     1.23 Bohr mag/cell

     iteration # 46     ecut=    90.00 Ry     beta= 0.20
     CG style diagonalization
     ethr =  5.60E-07,  avg # of iterations =  3.5

     total cpu time spent up to now is     1520.2 secs

     total energy              =   -2689.54965924 Ry
     estimated scf accuracy    <       0.20554595 Ry

     total magnetization       =    -1.08 Bohr mag/cell
     absolute magnetization    =     1.28 Bohr mag/cell

     iteration # 47     ecut=    90.00 Ry     beta= 0.20
     CG style diagonalization
     ethr =  5.60E-07,  avg # of iterations =  3.7

     total cpu time spent up to now is     1558.0 secs

     total energy              =   -2689.55115626 Ry
     estimated scf accuracy    <       0.06991823 Ry

     total magnetization       =    -1.17 Bohr mag/cell
     absolute magnetization    =     1.40 Bohr mag/cell

     iteration # 48     ecut=    90.00 Ry     beta= 0.20
     CG style diagonalization
     ethr =  5.60E-07,  avg # of iterations =  3.5

     total cpu time spent up to now is     1593.7 secs

     total energy              =   -2689.54931950 Ry
     estimated scf accuracy    <       0.24971539 Ry

     total magnetization       =    -1.23 Bohr mag/cell
     absolute magnetization    =     1.46 Bohr mag/cell

     iteration # 49     ecut=    90.00 Ry     beta= 0.20
     CG style diagonalization
     ethr =  5.60E-07,  avg # of iterations =  3.7

     total cpu time spent up to now is     1631.2 secs

     total energy              =   -2689.54649546 Ry
     estimated scf accuracy    <       0.42199560 Ry

     total magnetization       =    -1.13 Bohr mag/cell
     absolute magnetization    =     1.42 Bohr mag/cell

     iteration # 50     ecut=    90.00 Ry     beta= 0.20
     CG style diagonalization
     ethr =  5.60E-07,  avg # of iterations =  3.9

     total cpu time spent up to now is     1670.6 secs

     total energy              =   -2689.55064194 Ry
     estimated scf accuracy    <       0.13228537 Ry

     total magnetization       =    -1.42 Bohr mag/cell
     absolute magnetization    =     1.70 Bohr mag/cell

     iteration # 51     ecut=    90.00 Ry     beta= 0.20
     CG style diagonalization
     ethr =  5.60E-07,  avg # of iterations =  4.1

     total cpu time spent up to now is     1712.4 secs

     total energy              =   -2689.55004958 Ry
     estimated scf accuracy    <       0.31855194 Ry

     total magnetization       =    -1.66 Bohr mag/cell
     absolute magnetization    =     1.97 Bohr mag/cell

     iteration # 52     ecut=    90.00 Ry     beta= 0.20
     CG style diagonalization
     ethr =  5.60E-07,  avg # of iterations =  3.6

     total cpu time spent up to now is     1748.7 secs

     total energy              =   -2689.55253231 Ry
     estimated scf accuracy    <       0.08429834 Ry

     total magnetization       =    -1.67 Bohr mag/cell
     absolute magnetization    =     1.99 Bohr mag/cell

     iteration # 53     ecut=    90.00 Ry     beta= 0.20
     CG style diagonalization
     c_bands:  1 eigenvalues not converged
     ethr =  5.60E-07,  avg # of iterations =  4.4

     total cpu time spent up to now is     1793.8 secs

     total energy              =   -2689.53983464 Ry
     estimated scf accuracy    <       0.93860692 Ry

     total magnetization       =    -1.90 Bohr mag/cell
     absolute magnetization    =     2.24 Bohr mag/cell

     iteration # 54     ecut=    90.00 Ry     beta= 0.20
     CG style diagonalization
     ethr =  5.60E-07,  avg # of iterations =  4.1

     total cpu time spent up to now is     1835.2 secs

     total energy              =   -2689.54742000 Ry
     estimated scf accuracy    <       0.35386408 Ry

     total magnetization       =    -2.01 Bohr mag/cell
     absolute magnetization    =     2.39 Bohr mag/cell

     iteration # 55     ecut=    90.00 Ry     beta= 0.20
     CG style diagonalization
     c_bands:  1 eigenvalues not converged
     c_bands:  1 eigenvalues not converged
     c_bands:  1 eigenvalues not converged
     c_bands:  1 eigenvalues not converged
     c_bands:  1 eigenvalues not converged
     ethr =  5.60E-07,  avg # of iterations =  4.5

     total cpu time spent up to now is     1880.6 secs

     total energy              =   -2689.52525288 Ry
     estimated scf accuracy    <       2.20854137 Ry

     total magnetization       =    -1.60 Bohr mag/cell
     absolute magnetization    =     2.02 Bohr mag/cell

     iteration # 56     ecut=    90.00 Ry     beta= 0.20
     CG style diagonalization
     ethr =  5.60E-07,  avg # of iterations =  4.4

     total cpu time spent up to now is     1925.2 secs

     total energy              =   -2689.55726973 Ry
     estimated scf accuracy    <       0.12637213 Ry

     total magnetization       =    -2.14 Bohr mag/cell
     absolute magnetization    =     2.60 Bohr mag/cell

     iteration # 57     ecut=    90.00 Ry     beta= 0.20
     CG style diagonalization
     ethr =  5.60E-07,  avg # of iterations =  4.2

     total cpu time spent up to now is     1967.4 secs

     total energy              =   -2689.54760397 Ry
     estimated scf accuracy    <       0.46213604 Ry

     total magnetization       =    -2.41 Bohr mag/cell
     absolute magnetization    =     2.89 Bohr mag/cell

     iteration # 58     ecut=    90.00 Ry     beta= 0.20
     CG style diagonalization
     c_bands:  1 eigenvalues not converged
     ethr =  5.60E-07,  avg # of iterations =  4.7

     total cpu time spent up to now is     2015.4 secs

     total energy              =   -2689.54313376 Ry
     estimated scf accuracy    <       1.16844534 Ry

     total magnetization       =    -2.57 Bohr mag/cell
     absolute magnetization    =     3.05 Bohr mag/cell

     iteration # 59     ecut=    90.00 Ry     beta= 0.20
     CG style diagonalization
     c_bands:  1 eigenvalues not converged
     ethr =  5.60E-07,  avg # of iterations =  4.8

     total cpu time spent up to now is     2064.2 secs

     total energy              =   -2689.55471245 Ry
     estimated scf accuracy    <       0.47766044 Ry

     total magnetization       =    -2.81 Bohr mag/cell
     absolute magnetization    =     3.35 Bohr mag/cell

     iteration # 60     ecut=    90.00 Ry     beta= 0.20
     CG style diagonalization
     ethr =  5.60E-07,  avg # of iterations =  4.2

     total cpu time spent up to now is     2107.1 secs

     total energy              =   -2689.54779508 Ry
     estimated scf accuracy    <       0.77479090 Ry

     total magnetization       =    -2.91 Bohr mag/cell
     absolute magnetization    =     3.47 Bohr mag/cell

     iteration # 61     ecut=    90.00 Ry     beta= 0.20
     CG style diagonalization
     c_bands:  1 eigenvalues not converged
     c_bands:  1 eigenvalues not converged
     c_bands:  1 eigenvalues not converged
     ethr =  5.60E-07,  avg # of iterations =  4.6

     total cpu time spent up to now is     2154.1 secs

     total energy              =   -2689.52240198 Ry
     estimated scf accuracy    <       2.71010954 Ry

     total magnetization       =    -2.40 Bohr mag/cell
     absolute magnetization    =     2.96 Bohr mag/cell

     iteration # 62     ecut=    90.00 Ry     beta= 0.20
     CG style diagonalization
     c_bands:  1 eigenvalues not converged
     ethr =  5.60E-07,  avg # of iterations =  5.2

     total cpu time spent up to now is     2205.9 secs

     total energy              =   -2689.55113257 Ry
     estimated scf accuracy    <       0.47150494 Ry

     total magnetization       =    -3.02 Bohr mag/cell
     absolute magnetization    =     3.73 Bohr mag/cell

     iteration # 63     ecut=    90.00 Ry     beta= 0.20
     CG style diagonalization
     c_bands:  1 eigenvalues not converged
     c_bands:  1 eigenvalues not converged
     c_bands:  1 eigenvalues not converged
     c_bands:  1 eigenvalues not converged
     ethr =  5.60E-07,  avg # of iterations =  5.4

     total cpu time spent up to now is     2260.3 secs

     total energy              =   -2689.54484991 Ry
     estimated scf accuracy    <       1.58432800 Ry

     total magnetization       =    -3.38 Bohr mag/cell
     absolute magnetization    =     4.11 Bohr mag/cell

     iteration # 64     ecut=    90.00 Ry     beta= 0.20
     CG style diagonalization
     ethr =  5.60E-07,  avg # of iterations =  4.4

     total cpu time spent up to now is     2305.1 secs

     total energy              =   -2689.56916683 Ry
     estimated scf accuracy    <       0.26736737 Ry

     total magnetization       =    -3.76 Bohr mag/cell
     absolute magnetization    =     4.51 Bohr mag/cell

     iteration # 65     ecut=    90.00 Ry     beta= 0.20
     CG style diagonalization
     c_bands:  1 eigenvalues not converged
     c_bands:  2 eigenvalues not converged
     c_bands:  1 eigenvalues not converged
     c_bands:  1 eigenvalues not converged
     c_bands:  1 eigenvalues not converged
     c_bands:  1 eigenvalues not converged
     c_bands:  1 eigenvalues not converged
     c_bands:  1 eigenvalues not converged
     ethr =  5.60E-07,  avg # of iterations =  5.5

     total cpu time spent up to now is     2360.4 secs

     total energy              =   -2689.53352403 Ry
     estimated scf accuracy    <       2.25799894 Ry

     total magnetization       =    -3.82 Bohr mag/cell
     absolute magnetization    =     4.48 Bohr mag/cell

     iteration # 66     ecut=    90.00 Ry     beta= 0.20
     CG style diagonalization
     c_bands:  1 eigenvalues not converged
     c_bands:  1 eigenvalues not converged
     c_bands:  1 eigenvalues not converged
     c_bands:  1 eigenvalues not converged
     ethr =  5.60E-07,  avg # of iterations =  5.1

     total cpu time spent up to now is     2411.6 secs

     total energy              =   -2689.55457016 Ry
     estimated scf accuracy    <       0.89872647 Ry

     total magnetization       =    -4.16 Bohr mag/cell
     absolute magnetization    =     5.00 Bohr mag/cell

     iteration # 67     ecut=    90.00 Ry     beta= 0.20
     CG style diagonalization
     c_bands:  1 eigenvalues not converged
     c_bands:  1 eigenvalues not converged
     c_bands:  1 eigenvalues not converged
     c_bands:  1 eigenvalues not converged
     c_bands:  1 eigenvalues not converged
     c_bands:  1 eigenvalues not converged
     c_bands:  1 eigenvalues not converged
     c_bands:  1 eigenvalues not converged
     c_bands:  1 eigenvalues not converged
     c_bands:  1 eigenvalues not converged
     c_bands:  1 eigenvalues not converged
     c_bands:  1 eigenvalues not converged
     c_bands:  1 eigenvalues not converged
     c_bands:  1 eigenvalues not converged
     c_bands:  1 eigenvalues not converged
     c_bands:  1 eigenvalues not converged
     ethr =  5.60E-07,  avg # of iterations =  5.5

     total cpu time spent up to now is     2466.9 secs

     total energy              =   -2689.50296870 Ry
     estimated scf accuracy    <       4.88606794 Ry

     total magnetization       =    -3.51 Bohr mag/cell
     absolute magnetization    =     4.06 Bohr mag/cell

     iteration # 68     ecut=    90.00 Ry     beta= 0.20
     CG style diagonalization
     c_bands:  1 eigenvalues not converged
     c_bands:  1 eigenvalues not converged
     ethr =  5.60E-07,  avg # of iterations =  5.8

     total cpu time spent up to now is     2525.1 secs

     total energy              =   -2689.57894979 Ry
     estimated scf accuracy    <       0.45250962 Ry

     total magnetization       =    -4.25 Bohr mag/cell
     absolute magnetization    =     5.30 Bohr mag/cell

     iteration # 69     ecut=    90.00 Ry     beta= 0.20
     CG style diagonalization
     c_bands:  1 eigenvalues not converged
     c_bands:  1 eigenvalues not converged
     ethr =  5.60E-07,  avg # of iterations =  5.0

     total cpu time spent up to now is     2575.0 secs

     total energy              =   -2689.57364011 Ry
     estimated scf accuracy    <       0.57124079 Ry

     total magnetization       =    -4.68 Bohr mag/cell
     absolute magnetization    =     5.76 Bohr mag/cell

     iteration # 70     ecut=    90.00 Ry     beta= 0.20
     CG style diagonalization
     c_bands:  1 eigenvalues not converged
     c_bands:  1 eigenvalues not converged
     c_bands:  1 eigenvalues not converged
     c_bands:  1 eigenvalues not converged
     ethr =  5.60E-07,  avg # of iterations =  5.6

     total cpu time spent up to now is     2631.5 secs

     total energy              =   -2689.55175200 Ry
     estimated scf accuracy    <       2.49656383 Ry

     total magnetization       =    -4.46 Bohr mag/cell
     absolute magnetization    =     5.47 Bohr mag/cell

     iteration # 71     ecut=    90.00 Ry     beta= 0.20
     CG style diagonalization
     c_bands:  1 eigenvalues not converged
     c_bands:  1 eigenvalues not converged
     c_bands:  1 eigenvalues not converged
     c_bands:  2 eigenvalues not converged
     ethr =  5.60E-07,  avg # of iterations =  5.9

     total cpu time spent up to now is     2690.4 secs

     total energy              =   -2689.58207376 Ry
     estimated scf accuracy    <       1.13348803 Ry

     total magnetization       =    -5.15 Bohr mag/cell
     absolute magnetization    =     6.19 Bohr mag/cell

     iteration # 72     ecut=    90.00 Ry     beta= 0.20
     CG style diagonalization
     c_bands:  1 eigenvalues not converged
     c_bands:  1 eigenvalues not converged
     ethr =  5.60E-07,  avg # of iterations =  5.0

     total cpu time spent up to now is     2741.1 secs

     total energy              =   -2689.57960979 Ry
     estimated scf accuracy    <       0.83238995 Ry

     total magnetization       =    -5.35 Bohr mag/cell
     absolute magnetization    =     6.53 Bohr mag/cell

     iteration # 73     ecut=    90.00 Ry     beta= 0.20
     CG style diagonalization
     c_bands:  1 eigenvalues not converged
     c_bands:  1 eigenvalues not converged
     c_bands:  1 eigenvalues not converged
     c_bands:  1 eigenvalues not converged
     c_bands:  1 eigenvalues not converged
     c_bands:  1 eigenvalues not converged
     c_bands:  1 eigenvalues not converged
     ethr =  5.60E-07,  avg # of iterations =  5.6

     total cpu time spent up to now is     2797.2 secs

     total energy              =   -2689.52618889 Ry
     estimated scf accuracy    <       4.50628418 Ry

     total magnetization       =    -4.46 Bohr mag/cell
     absolute magnetization    =     5.36 Bohr mag/cell

     iteration # 74     ecut=    90.00 Ry     beta= 0.20
     CG style diagonalization
     ethr =  5.60E-07,  avg # of iterations =  6.0

     total cpu time spent up to now is     2857.3 secs

     total energy              =   -2689.59992347 Ry
     estimated scf accuracy    <       0.50603270 Ry

     total magnetization       =    -5.32 Bohr mag/cell
     absolute magnetization    =     6.76 Bohr mag/cell

     iteration # 75     ecut=    90.00 Ry     beta= 0.20
     CG style diagonalization
     c_bands:  1 eigenvalues not converged
     c_bands:  1 eigenvalues not converged
     c_bands:  1 eigenvalues not converged
     c_bands:  1 eigenvalues not converged
     c_bands:  1 eigenvalues not converged
     c_bands:  1 eigenvalues not converged
     ethr =  5.60E-07,  avg # of iterations =  5.9

     total cpu time spent up to now is     2916.2 secs

     total energy              =   -2689.60159794 Ry
     estimated scf accuracy    <       0.98137763 Ry

     total magnetization       =    -5.62 Bohr mag/cell
     absolute magnetization    =     7.19 Bohr mag/cell

     iteration # 76     ecut=    90.00 Ry     beta= 0.20
     CG style diagonalization
     c_bands:  1 eigenvalues not converged
     ethr =  5.60E-07,  avg # of iterations =  5.0

     total cpu time spent up to now is     2966.7 secs

     total energy              =   -2689.62678941 Ry
     estimated scf accuracy    <       0.58497067 Ry

     total magnetization       =    -6.11 Bohr mag/cell
     absolute magnetization    =     7.58 Bohr mag/cell

     iteration # 77     ecut=    90.00 Ry     beta= 0.20
     CG style diagonalization
     c_bands:  1 eigenvalues not converged
     ethr =  5.60E-07,  avg # of iterations =  5.5

     total cpu time spent up to now is     3022.1 secs

     total energy              =   -2689.61437212 Ry
     estimated scf accuracy    <       1.13638935 Ry

     total magnetization       =    -6.14 Bohr mag/cell
     absolute magnetization    =     7.61 Bohr mag/cell

     iteration # 78     ecut=    90.00 Ry     beta= 0.20
     CG style diagonalization
     c_bands:  1 eigenvalues not converged
     c_bands:  1 eigenvalues not converged
     c_bands:  1 eigenvalues not converged
     ethr =  5.60E-07,  avg # of iterations =  5.0

     total cpu time spent up to now is     3073.0 secs

     total energy              =   -2689.61712797 Ry
     estimated scf accuracy    <       0.57684409 Ry

     total magnetization       =    -6.50 Bohr mag/cell
     absolute magnetization    =     8.13 Bohr mag/cell

     iteration # 79     ecut=    90.00 Ry     beta= 0.20
     CG style diagonalization
     c_bands:  1 eigenvalues not converged
     c_bands:  1 eigenvalues not converged
     c_bands:  1 eigenvalues not converged
     ethr =  5.60E-07,  avg # of iterations =  5.8

     negative rho (up, down):  3.353E-06 0.000E+00

     total cpu time spent up to now is     3131.6 secs

     total energy              =   -2689.54506547 Ry
     estimated scf accuracy    <       4.65382676 Ry

     total magnetization       =    -5.12 Bohr mag/cell
     absolute magnetization    =     6.48 Bohr mag/cell

     iteration # 80     ecut=    90.00 Ry     beta= 0.20
     CG style diagonalization
     c_bands:  1 eigenvalues not converged
     c_bands:  1 eigenvalues not converged
     ethr =  5.60E-07,  avg # of iterations =  6.3

     negative rho (up, down):  5.693E-06 0.000E+00

     total cpu time spent up to now is     3194.7 secs

     total energy              =   -2689.64158198 Ry
     estimated scf accuracy    <       0.49667333 Ry

     total magnetization       =    -6.17 Bohr mag/cell
     absolute magnetization    =     8.13 Bohr mag/cell

     iteration # 81     ecut=    90.00 Ry     beta= 0.20
     CG style diagonalization
     ethr =  5.60E-07,  avg # of iterations =  5.4

     negative rho (up, down):  9.319E-06 0.000E+00

     total cpu time spent up to now is     3248.8 secs

     total energy              =   -2689.66121666 Ry
     estimated scf accuracy    <       0.33826443 Ry

     total magnetization       =    -6.50 Bohr mag/cell
     absolute magnetization    =     8.63 Bohr mag/cell

     iteration # 82     ecut=    90.00 Ry     beta= 0.20
     CG style diagonalization
     c_bands:  1 eigenvalues not converged
     ethr =  5.60E-07,  avg # of iterations =  4.5

     negative rho (up, down):  1.436E-05 0.000E+00

     total cpu time spent up to now is     3294.3 secs

     total energy              =   -2689.67177372 Ry
     estimated scf accuracy    <       0.40082438 Ry

     total magnetization       =    -6.83 Bohr mag/cell
     absolute magnetization    =     8.87 Bohr mag/cell

     iteration # 83     ecut=    90.00 Ry     beta= 0.20
     CG style diagonalization
     ethr =  5.60E-07,  avg # of iterations =  5.0

     negative rho (up, down):  1.598E-05 0.000E+00

     total cpu time spent up to now is     3345.0 secs

     total energy              =   -2689.67482885 Ry
     estimated scf accuracy    <       0.47299201 Ry

     total magnetization       =    -6.93 Bohr mag/cell
     absolute magnetization    =     9.07 Bohr mag/cell

     iteration # 84     ecut=    90.00 Ry     beta= 0.20
     CG style diagonalization
     ethr =  5.60E-07,  avg # of iterations =  4.4

     negative rho (up, down):  1.966E-05 0.000E+00

     total cpu time spent up to now is     3389.8 secs

     total energy              =   -2689.66963279 Ry
     estimated scf accuracy    <       0.23784000 Ry

     total magnetization       =    -6.97 Bohr mag/cell
     absolute magnetization    =     9.28 Bohr mag/cell

     iteration # 85     ecut=    90.00 Ry     beta= 0.20
     CG style diagonalization
     c_bands:  1 eigenvalues not converged
     c_bands:  1 eigenvalues not converged
     c_bands:  1 eigenvalues not converged
     c_bands:  1 eigenvalues not converged
     ethr =  5.60E-07,  avg # of iterations =  5.6

     negative rho (up, down):  2.325E-05 0.000E+00

     total cpu time spent up to now is     3446.2 secs

     total energy              =   -2689.61339846 Ry
     estimated scf accuracy    <       3.07776430 Ry

     total magnetization       =    -5.81 Bohr mag/cell
     absolute magnetization    =     8.12 Bohr mag/cell

     iteration # 86     ecut=    90.00 Ry     beta= 0.20
     CG style diagonalization
     c_bands:  1 eigenvalues not converged
     ethr =  5.60E-07,  avg # of iterations =  5.8

     negative rho (up, down):  2.904E-05 0.000E+00

     total cpu time spent up to now is     3504.4 secs

     total energy              =   -2689.69640484 Ry
     estimated scf accuracy    <       0.20875710 Ry

     total magnetization       =    -6.76 Bohr mag/cell
     absolute magnetization    =     9.39 Bohr mag/cell

     iteration # 87     ecut=    90.00 Ry     beta= 0.20
     CG style diagonalization
     ethr =  5.60E-07,  avg # of iterations =  4.7

     negative rho (up, down):  3.293E-05 0.000E+00

     total cpu time spent up to now is     3551.6 secs

     total energy              =   -2689.70847507 Ry
     estimated scf accuracy    <       0.15089688 Ry

     total magnetization       =    -6.84 Bohr mag/cell
     absolute magnetization    =     9.75 Bohr mag/cell

     iteration # 88     ecut=    90.00 Ry     beta= 0.20
     CG style diagonalization
     ethr =  5.60E-07,  avg # of iterations =  3.8

     negative rho (up, down):  4.263E-05 0.000E+00

     total cpu time spent up to now is     3590.5 secs

     total energy              =   -2689.72162177 Ry
     estimated scf accuracy    <       0.09626876 Ry

     total magnetization       =    -6.94 Bohr mag/cell
     absolute magnetization    =     9.88 Bohr mag/cell

     iteration # 89     ecut=    90.00 Ry     beta= 0.20
     CG style diagonalization
     ethr =  5.60E-07,  avg # of iterations =  3.6

     negative rho (up, down):  4.657E-05 0.000E+00

     total cpu time spent up to now is     3626.9 secs

     total energy              =   -2689.72655917 Ry
     estimated scf accuracy    <       0.08507802 Ry

     total magnetization       =    -6.88 Bohr mag/cell
     absolute magnetization    =    10.13 Bohr mag/cell

     iteration # 90     ecut=    90.00 Ry     beta= 0.20
     CG style diagonalization
     ethr =  5.60E-07,  avg # of iterations =  3.5

     negative rho (up, down):  8.041E-05 0.000E+00

     total cpu time spent up to now is     3663.0 secs

     total energy              =   -2689.75839276 Ry
     estimated scf accuracy    <       0.07338274 Ry

     total magnetization       =    -6.90 Bohr mag/cell
     absolute magnetization    =    10.28 Bohr mag/cell

     iteration # 91     ecut=    90.00 Ry     beta= 0.20
     CG style diagonalization
     c_bands:  1 eigenvalues not converged
     ethr =  5.60E-07,  avg # of iterations =  4.3

     negative rho (up, down):  1.102E-04 1.321E-05

     total cpu time spent up to now is     3706.4 secs

     total energy              =   -2689.78410086 Ry
     estimated scf accuracy    <       0.04637753 Ry

     total magnetization       =    -6.99 Bohr mag/cell
     absolute magnetization    =    11.17 Bohr mag/cell

     iteration # 92     ecut=    90.00 Ry     beta= 0.20
     CG style diagonalization
     ethr =  5.60E-07,  avg # of iterations =  4.7

     negative rho (up, down):  1.568E-04 3.565E-05

     total cpu time spent up to now is     3753.7 secs

     total energy              =   -2689.79062809 Ry
     estimated scf accuracy    <       0.04729638 Ry

     total magnetization       =    -7.17 Bohr mag/cell
     absolute magnetization    =    11.84 Bohr mag/cell

     iteration # 93     ecut=    90.00 Ry     beta= 0.20
     CG style diagonalization
     c_bands:  1 eigenvalues not converged
     c_bands:  1 eigenvalues not converged
     c_bands:  1 eigenvalues not converged
     ethr =  5.60E-07,  avg # of iterations =  5.3

     negative rho (up, down):  1.466E-04 3.172E-05

     total cpu time spent up to now is     3807.2 secs

     total energy              =   -2689.80299434 Ry
     estimated scf accuracy    <       0.00973389 Ry

     total magnetization       =    -7.49 Bohr mag/cell
     absolute magnetization    =    12.80 Bohr mag/cell

     iteration # 94     ecut=    90.00 Ry     beta= 0.20
     CG style diagonalization
     ethr =  5.60E-07,  avg # of iterations =  3.8

     negative rho (up, down):  1.471E-04 3.282E-05

     total cpu time spent up to now is     3845.9 secs

     total energy              =   -2689.80448497 Ry
     estimated scf accuracy    <       0.00744409 Ry

     total magnetization       =    -7.45 Bohr mag/cell
     absolute magnetization    =    12.71 Bohr mag/cell

     iteration # 95     ecut=    90.00 Ry     beta= 0.20
     CG style diagonalization
     ethr =  5.60E-07,  avg # of iterations =  3.4

     negative rho (up, down):  1.501E-04 3.452E-05

     total cpu time spent up to now is     3880.8 secs

     total energy              =   -2689.80487346 Ry
     estimated scf accuracy    <       0.00359489 Ry

     total magnetization       =    -7.46 Bohr mag/cell
     absolute magnetization    =    12.71 Bohr mag/cell

     iteration # 96     ecut=    90.00 Ry     beta= 0.20
     CG style diagonalization
     ethr =  5.60E-07,  avg # of iterations =  3.1

     negative rho (up, down):  1.512E-04 3.717E-05

     total cpu time spent up to now is     3912.5 secs

     total energy              =   -2689.80595289 Ry
     estimated scf accuracy    <       0.00211112 Ry

     total magnetization       =    -7.49 Bohr mag/cell
     absolute magnetization    =    12.78 Bohr mag/cell

     iteration # 97     ecut=    90.00 Ry     beta= 0.20
     CG style diagonalization
     ethr =  5.60E-07,  avg # of iterations =  3.2

     negative rho (up, down):  1.489E-04 3.703E-05

     total cpu time spent up to now is     3945.2 secs

     total energy              =   -2689.80621570 Ry
     estimated scf accuracy    <       0.00242468 Ry

     total magnetization       =    -7.49 Bohr mag/cell
     absolute magnetization    =    12.86 Bohr mag/cell

     iteration # 98     ecut=    90.00 Ry     beta= 0.20
     CG style diagonalization
     ethr =  5.60E-07,  avg # of iterations =  3.2

     negative rho (up, down):  1.504E-04 3.786E-05

     total cpu time spent up to now is     3977.8 secs

     total energy              =   -2689.80630623 Ry
     estimated scf accuracy    <       0.00186367 Ry

     total magnetization       =    -7.51 Bohr mag/cell
     absolute magnetization    =    12.87 Bohr mag/cell

     iteration # 99     ecut=    90.00 Ry     beta= 0.20
     CG style diagonalization
     ethr =  5.60E-07,  avg # of iterations =  3.1

     negative rho (up, down):  1.511E-04 3.973E-05

     total cpu time spent up to now is     4009.9 secs

     total energy              =   -2689.80664352 Ry
     estimated scf accuracy    <       0.00185132 Ry

     total magnetization       =    -7.54 Bohr mag/cell
     absolute magnetization    =    12.89 Bohr mag/cell

     iteration #100     ecut=    90.00 Ry     beta= 0.20
     CG style diagonalization
     ethr =  5.60E-07,  avg # of iterations =  3.1

     negative rho (up, down):  1.506E-04 3.924E-05

     total cpu time spent up to now is     4041.5 secs

     total energy              =   -2689.80674269 Ry
     estimated scf accuracy    <       0.00073168 Ry

     total magnetization       =    -7.54 Bohr mag/cell
     absolute magnetization    =    12.94 Bohr mag/cell

     iteration #101     ecut=    90.00 Ry     beta= 0.20
     CG style diagonalization
     ethr =  5.38E-07,  avg # of iterations =  3.0

     negative rho (up, down):  1.508E-04 3.921E-05

     total cpu time spent up to now is     4072.3 secs

     total energy              =   -2689.80678299 Ry
     estimated scf accuracy    <       0.00038032 Ry

     total magnetization       =    -7.54 Bohr mag/cell
     absolute magnetization    =    12.94 Bohr mag/cell

     iteration #102     ecut=    90.00 Ry     beta= 0.20
     CG style diagonalization
     ethr =  2.80E-07,  avg # of iterations =  3.0

     negative rho (up, down):  1.510E-04 3.967E-05

     total cpu time spent up to now is     4103.0 secs

     total energy              =   -2689.80685150 Ry
     estimated scf accuracy    <       0.00034980 Ry

     total magnetization       =    -7.54 Bohr mag/cell
     absolute magnetization    =    12.94 Bohr mag/cell

     iteration #103     ecut=    90.00 Ry     beta= 0.20
     CG style diagonalization
     ethr =  2.57E-07,  avg # of iterations =  3.0

     negative rho (up, down):  1.511E-04 3.975E-05

     total cpu time spent up to now is     4133.7 secs

     total energy              =   -2689.80687818 Ry
     estimated scf accuracy    <       0.00010162 Ry

     total magnetization       =    -7.55 Bohr mag/cell
     absolute magnetization    =    12.95 Bohr mag/cell

     iteration #104     ecut=    90.00 Ry     beta= 0.20
     CG style diagonalization
     ethr =  7.47E-08,  avg # of iterations =  3.1

     negative rho (up, down):  1.513E-04 3.990E-05

     total cpu time spent up to now is     4165.6 secs

     total energy              =   -2689.80689875 Ry
     estimated scf accuracy    <       0.00008825 Ry

     total magnetization       =    -7.55 Bohr mag/cell
     absolute magnetization    =    12.95 Bohr mag/cell

     iteration #105     ecut=    90.00 Ry     beta= 0.20
     CG style diagonalization
     ethr =  6.49E-08,  avg # of iterations =  3.1

     negative rho (up, down):  1.514E-04 4.008E-05

     total cpu time spent up to now is     4197.7 secs

     total energy              =   -2689.80691571 Ry
     estimated scf accuracy    <       0.00009720 Ry

     total magnetization       =    -7.55 Bohr mag/cell
     absolute magnetization    =    12.96 Bohr mag/cell

     iteration #106     ecut=    90.00 Ry     beta= 0.20
     CG style diagonalization
     ethr =  6.49E-08,  avg # of iterations =  3.0

     negative rho (up, down):  1.517E-04 4.028E-05

     total cpu time spent up to now is     4228.5 secs

     total energy              =   -2689.80692974 Ry
     estimated scf accuracy    <       0.00004253 Ry

     total magnetization       =    -7.56 Bohr mag/cell
     absolute magnetization    =    12.97 Bohr mag/cell

     iteration #107     ecut=    90.00 Ry     beta= 0.20
     CG style diagonalization
     ethr =  3.13E-08,  avg # of iterations =  3.1

     negative rho (up, down):  1.520E-04 4.054E-05

     total cpu time spent up to now is     4260.3 secs

     total energy              =   -2689.80693677 Ry
     estimated scf accuracy    <       0.00005488 Ry

     total magnetization       =    -7.56 Bohr mag/cell
     absolute magnetization    =    12.98 Bohr mag/cell

     iteration #108     ecut=    90.00 Ry     beta= 0.20
     CG style diagonalization
     ethr =  3.13E-08,  avg # of iterations =  3.1

     negative rho (up, down):  1.519E-04 4.039E-05

     total cpu time spent up to now is     4292.2 secs

     total energy              =   -2689.80693771 Ry
     estimated scf accuracy    <       0.00004223 Ry

     total magnetization       =    -7.56 Bohr mag/cell
     absolute magnetization    =    12.99 Bohr mag/cell

     iteration #109     ecut=    90.00 Ry     beta= 0.20
     CG style diagonalization
     ethr =  3.10E-08,  avg # of iterations =  3.1

     negative rho (up, down):  1.520E-04 4.047E-05

     total cpu time spent up to now is     4323.4 secs

     total energy              =   -2689.80694388 Ry
     estimated scf accuracy    <       0.00001888 Ry

     total magnetization       =    -7.56 Bohr mag/cell
     absolute magnetization    =    12.99 Bohr mag/cell

     iteration #110     ecut=    90.00 Ry     beta= 0.20
     CG style diagonalization
     ethr =  1.39E-08,  avg # of iterations =  3.1

     negative rho (up, down):  1.522E-04 4.058E-05

     total cpu time spent up to now is     4354.7 secs

     total energy              =   -2689.80694669 Ry
     estimated scf accuracy    <       0.00001450 Ry

     total magnetization       =    -7.57 Bohr mag/cell
     absolute magnetization    =    12.99 Bohr mag/cell

     iteration #111     ecut=    90.00 Ry     beta= 0.20
     CG style diagonalization
     ethr =  1.07E-08,  avg # of iterations =  3.2

     negative rho (up, down):  1.521E-04 4.053E-05

     total cpu time spent up to now is     4386.9 secs

     total energy              =   -2689.80694750 Ry
     estimated scf accuracy    <       0.00000704 Ry

     total magnetization       =    -7.57 Bohr mag/cell
     absolute magnetization    =    12.99 Bohr mag/cell

     iteration #112     ecut=    90.00 Ry     beta= 0.20
     CG style diagonalization
     ethr =  5.17E-09,  avg # of iterations =  3.4

     negative rho (up, down):  1.522E-04 4.058E-05

     total cpu time spent up to now is     4421.0 secs

     total energy              =   -2689.80694946 Ry
     estimated scf accuracy    <       0.00000591 Ry

     total magnetization       =    -7.57 Bohr mag/cell
     absolute magnetization    =    12.99 Bohr mag/cell

     iteration #113     ecut=    90.00 Ry     beta= 0.20
     CG style diagonalization
     ethr =  4.34E-09,  avg # of iterations =  3.1

     negative rho (up, down):  1.523E-04 4.063E-05

     total cpu time spent up to now is     4452.9 secs

     total energy              =   -2689.80695045 Ry
     estimated scf accuracy    <       0.00000356 Ry

     total magnetization       =    -7.57 Bohr mag/cell
     absolute magnetization    =    13.00 Bohr mag/cell

     iteration #114     ecut=    90.00 Ry     beta= 0.20
     CG style diagonalization
     ethr =  2.62E-09,  avg # of iterations =  3.1

     negative rho (up, down):  1.524E-04 4.066E-05

     total cpu time spent up to now is     4485.0 secs

     total energy              =   -2689.80695096 Ry
     estimated scf accuracy    <       0.00000186 Ry

     total magnetization       =    -7.57 Bohr mag/cell
     absolute magnetization    =    13.00 Bohr mag/cell

     iteration #115     ecut=    90.00 Ry     beta= 0.20
     CG style diagonalization
     ethr =  1.37E-09,  avg # of iterations =  3.4

     negative rho (up, down):  1.525E-04 4.067E-05

     total cpu time spent up to now is     4519.9 secs

     total energy              =   -2689.80695119 Ry
     estimated scf accuracy    <       0.00000452 Ry

     total magnetization       =    -7.57 Bohr mag/cell
     absolute magnetization    =    13.00 Bohr mag/cell

     iteration #116     ecut=    90.00 Ry     beta= 0.20
     CG style diagonalization
     ethr =  1.37E-09,  avg # of iterations =  3.2

     negative rho (up, down):  1.525E-04 4.067E-05

     total cpu time spent up to now is     4552.6 secs

     total energy              =   -2689.80695148 Ry
     estimated scf accuracy    <       0.00000179 Ry

     total magnetization       =    -7.57 Bohr mag/cell
     absolute magnetization    =    13.00 Bohr mag/cell

     iteration #117     ecut=    90.00 Ry     beta= 0.20
     CG style diagonalization
     ethr =  1.32E-09,  avg # of iterations =  3.0

     negative rho (up, down):  1.525E-04 4.068E-05

     total cpu time spent up to now is     4583.4 secs

     total energy              =   -2689.80695168 Ry
     estimated scf accuracy    <       0.00000075 Ry

     total magnetization       =    -7.57 Bohr mag/cell
     absolute magnetization    =    13.00 Bohr mag/cell

     iteration #118     ecut=    90.00 Ry     beta= 0.20
     CG style diagonalization
     ethr =  5.53E-10,  avg # of iterations =  3.1

     negative rho (up, down):  1.525E-04 4.068E-05

     total cpu time spent up to now is     4614.9 secs

     total energy              =   -2689.80695174 Ry
     estimated scf accuracy    <       0.00000102 Ry

     total magnetization       =    -7.57 Bohr mag/cell
     absolute magnetization    =    13.00 Bohr mag/cell

     iteration #119     ecut=    90.00 Ry     beta= 0.20
     CG style diagonalization
     ethr =  5.53E-10,  avg # of iterations =  3.0

     negative rho (up, down):  1.525E-04 4.068E-05

     total cpu time spent up to now is     4646.1 secs

     total energy              =   -2689.80695179 Ry
     estimated scf accuracy    <       0.00000058 Ry

     total magnetization       =    -7.57 Bohr mag/cell
     absolute magnetization    =    13.00 Bohr mag/cell

     iteration #120     ecut=    90.00 Ry     beta= 0.20
     CG style diagonalization
     ethr =  4.24E-10,  avg # of iterations =  3.0

     negative rho (up, down):  1.526E-04 4.068E-05

     total cpu time spent up to now is     4676.9 secs

     total energy              =   -2689.80695190 Ry
     estimated scf accuracy    <       0.00000025 Ry

     total magnetization       =    -7.57 Bohr mag/cell
     absolute magnetization    =    13.00 Bohr mag/cell

     iteration #121     ecut=    90.00 Ry     beta= 0.20
     CG style diagonalization
     ethr =  1.86E-10,  avg # of iterations =  3.3

     negative rho (up, down):  1.526E-04 4.069E-05

     total cpu time spent up to now is     4710.4 secs

     total energy              =   -2689.80695193 Ry
     estimated scf accuracy    <       0.00000027 Ry

     total magnetization       =    -7.57 Bohr mag/cell
     absolute magnetization    =    13.00 Bohr mag/cell

     iteration #122     ecut=    90.00 Ry     beta= 0.20
     CG style diagonalization
     ethr =  1.86E-10,  avg # of iterations =  3.1

     negative rho (up, down):  1.526E-04 4.069E-05

     total cpu time spent up to now is     4742.4 secs

     total energy              =   -2689.80695196 Ry
     estimated scf accuracy    <       0.00000024 Ry

     total magnetization       =    -7.57 Bohr mag/cell
     absolute magnetization    =    13.00 Bohr mag/cell

     iteration #123     ecut=    90.00 Ry     beta= 0.20
     CG style diagonalization
     ethr =  1.78E-10,  avg # of iterations =  3.0

     negative rho (up, down):  1.526E-04 4.069E-05

     total cpu time spent up to now is     4773.4 secs

     total energy              =   -2689.80695200 Ry
     estimated scf accuracy    <       0.00000022 Ry

     total magnetization       =    -7.57 Bohr mag/cell
     absolute magnetization    =    13.00 Bohr mag/cell

     iteration #124     ecut=    90.00 Ry     beta= 0.20
     CG style diagonalization
     ethr =  1.63E-10,  avg # of iterations =  3.0

     negative rho (up, down):  1.526E-04 4.069E-05

     total cpu time spent up to now is     4804.1 secs

     total energy              =   -2689.80695201 Ry
     estimated scf accuracy    <       0.00000013 Ry

     total magnetization       =    -7.57 Bohr mag/cell
     absolute magnetization    =    13.00 Bohr mag/cell

     iteration #125     ecut=    90.00 Ry     beta= 0.20
     CG style diagonalization
     ethr =  9.54E-11,  avg # of iterations =  3.0

     negative rho (up, down):  1.526E-04 4.069E-05

     total cpu time spent up to now is     4835.1 secs

     total energy              =   -2689.80695202 Ry
     estimated scf accuracy    <       0.00000012 Ry

     total magnetization       =    -7.57 Bohr mag/cell
     absolute magnetization    =    13.00 Bohr mag/cell

     iteration #126     ecut=    90.00 Ry     beta= 0.20
     CG style diagonalization
     ethr =  9.13E-11,  avg # of iterations =  3.0

     negative rho (up, down):  1.526E-04 4.069E-05

     total cpu time spent up to now is     4866.1 secs

     total energy              =   -2689.80695203 Ry
     estimated scf accuracy    <       0.00000011 Ry

     total magnetization       =    -7.57 Bohr mag/cell
     absolute magnetization    =    13.00 Bohr mag/cell

     iteration #127     ecut=    90.00 Ry     beta= 0.20
     CG style diagonalization
     ethr =  8.45E-11,  avg # of iterations =  3.0

     negative rho (up, down):  1.526E-04 4.069E-05

     total cpu time spent up to now is     4896.8 secs

     total energy              =   -2689.80695204 Ry
     estimated scf accuracy    <       0.00000003 Ry

     total magnetization       =    -7.57 Bohr mag/cell
     absolute magnetization    =    13.00 Bohr mag/cell

     iteration #128     ecut=    90.00 Ry     beta= 0.20
     CG style diagonalization
     ethr =  2.14E-11,  avg # of iterations =  3.7

     negative rho (up, down):  1.526E-04 4.069E-05

     total cpu time spent up to now is     4934.3 secs

     total energy              =   -2689.80695205 Ry
     estimated scf accuracy    <       0.00000003 Ry

     total magnetization       =    -7.57 Bohr mag/cell
     absolute magnetization    =    13.00 Bohr mag/cell

     iteration #129     ecut=    90.00 Ry     beta= 0.20
     CG style diagonalization
     ethr =  1.87E-11,  avg # of iterations =  3.2

     negative rho (up, down):  1.526E-04 4.069E-05

     total cpu time spent up to now is     4966.7 secs

     total energy              =   -2689.80695205 Ry
     estimated scf accuracy    <       0.00000002 Ry

     total magnetization       =    -7.57 Bohr mag/cell
     absolute magnetization    =    13.00 Bohr mag/cell

     iteration #130     ecut=    90.00 Ry     beta= 0.20
     CG style diagonalization
     ethr =  1.17E-11,  avg # of iterations =  3.1

     negative rho (up, down):  1.527E-04 4.069E-05

     Magnetic moment per site:
     atom:    1    charge:   16.3688    magn:   -0.8374    constr:    0.0000
     atom:    2    charge:   14.0174    magn:    2.4180    constr:    0.0000
     atom:    3    charge:   16.3791    magn:   -0.3113    constr:    0.0000
     atom:    4    charge:   14.0133    magn:   -2.7014    constr:    0.0000
     atom:    5    charge:   16.3791    magn:   -0.3114    constr:    0.0000
     atom:    6    charge:   14.0133    magn:   -2.7014    constr:    0.0000
     atom:    7    charge:   16.3791    magn:   -0.3113    constr:    0.0000
     atom:    8    charge:   14.0133    magn:   -2.7014    constr:    0.0000

     total cpu time spent up to now is     4998.3 secs

     End of self-consistent calculation

     Number of k-points >= 100: set verbosity='high' to print the bands.

     the Fermi energy is    16.5121 ev

!    total energy              =   -2689.80695205 Ry
     estimated scf accuracy    <          6.8E-09 Ry
     smearing contrib. (-TS)   =      -0.00381294 Ry
     internal energy E=F+TS    =   -2689.80313912 Ry

     total magnetization       =    -7.57 Bohr mag/cell
     absolute magnetization    =    13.00 Bohr mag/cell

     convergence has been achieved in 130 iterations

     negative rho (up, down):  1.527E-04 4.069E-05

     Forces acting on atoms (cartesian axes, Ry/au):

     atom    1 type  1   force =    -0.00000007   -0.00000000   -0.00000000
     atom    2 type  2   force =    -0.00000000    0.00000001    0.00000002
     atom    3 type  1   force =    -0.00000007    0.00000002   -0.00000001
     atom    4 type  2   force =     0.00000005    0.00000006   -0.00000009
     atom    5 type  1   force =    -0.00000005   -0.00000001   -0.00000000
     atom    6 type  2   force =     0.00000012   -0.00000004    0.00000012
     atom    7 type  1   force =    -0.00000009    0.00000000   -0.00000000
     atom    8 type  2   force =     0.00000011   -0.00000005   -0.00000003

     Total force =     0.000000     Total SCF correction =     0.000000
     SCF correction compared to forces is large: reduce conv_thr to get better values


     Computing stress (Cartesian axis) and pressure


     negative rho (up, down):  1.527E-04 4.069E-05
          total   stress  (Ry/bohr**3)                   (kbar)     P=      129.71
   0.00088176   0.00000000   0.00000000          129.71        0.00        0.00
   0.00000000   0.00088176   0.00000000            0.00      129.71        0.00
   0.00000000   0.00000000   0.00088178            0.00        0.00      129.71


     Entering Dynamics;  it =     1   time =  0.00000 pico-seconds


     File pwscf.e deleted, as requested

     File pwscf.eal deleted, as requested

     File pwscf.ave deleted, as requested

     File pwscf.p deleted, as requested

     File pwscf.avec deleted, as requested

     File pwscf.tv deleted, as requested
  new lattice vectors (alat unit) :
   1.000068025  -0.000001417  -0.000000109
  -0.000001417   1.000065769   0.000001292
  -0.000000109   0.000001292   1.000068611
  new unit-cell volume =    660.2506 (a.u.)^3
  new positions in cryst coord
Ni      -0.001343221   0.500238598  -0.000603171
Fe       0.500062248  -0.000064942   0.499708816
Ni       0.000291765  -0.000003135   0.501100070
Fe       0.500205714   0.499597832  -0.000679247
Ni       0.501047858  -0.000723797  -0.000766034
Fe      -0.000301385   0.500362005   0.500965350
Ni       0.500003598   0.500488335   0.500269135
Fe       0.000033423   0.000105105   0.000005081
  new positions in cart coord (alat unit)
Ni      -0.001344021   0.500271499  -0.000602566
Fe       0.500096210  -0.000065009   0.499743047
Ni       0.000291730  -0.000002488   0.501134451
Fe       0.500239033   0.499629980  -0.000678703
Ni       0.501081943  -0.000724556  -0.000766142
Fe      -0.000302170   0.500395561   0.501000368
Ni       0.500036846   0.500521189   0.500304051
Fe       0.000033426   0.000105112   0.000005081

     Ekin =     0.03990183 Ry    T =    0.0 K  Etot =    -2689.76704574
     new unit-cell volume =    660.25061 a.u.^3 (    97.83905 Ang^3 )
     density =      7.77582 g/cm^3

CELL_PARAMETERS (angstrom)
   4.607913430  -0.000006530  -0.000000504
  -0.000006530   4.607903039   0.000005953
  -0.000000504   0.000005953   4.607916131

ATOMIC_POSITIONS (angstrom)
Ni           -0.0061927134        2.3050509592       -0.0027763821
Fe            2.3042432965       -0.0002995368        2.3026160622
Ni            0.0013441759       -0.0000114647        2.3090270941
Fe            2.3049013661        2.3020950971       -0.0031271910
Ni            2.3087851600       -0.0033384647       -0.0035300766
Fe           -0.0013922777        2.3056225862        2.3084092952
Ni            2.3039697724        2.3062014314        2.3052009433
Fe            0.0001540115        0.0004843145        0.0000234125



     Writing output data file ./pwscf.save/
     NEW-OLD atomic charge density approx. for the potential

     Check: negative core charge=   -0.000010

     negative rho (up, down):  1.504E-04 4.058E-05
     extrapolated charge  136.02590, renormalised to  136.00000
     Generating pointlists ...

     total cpu time spent up to now is     5020.8 secs

     Self-consistent Calculation

     iteration #  1     ecut=    90.00 Ry     beta= 0.20
     CG style diagonalization
     c_bands:  2 eigenvalues not converged
     c_bands:  1 eigenvalues not converged
     c_bands:  1 eigenvalues not converged
     c_bands:  1 eigenvalues not converged
     c_bands:  1 eigenvalues not converged
     c_bands:  1 eigenvalues not converged
     c_bands:  1 eigenvalues not converged
     c_bands:  1 eigenvalues not converged
     c_bands:  2 eigenvalues not converged
     c_bands:  1 eigenvalues not converged
     c_bands:  3 eigenvalues not converged
     c_bands:  3 eigenvalues not converged
     c_bands:  1 eigenvalues not converged
     c_bands:  1 eigenvalues not converged
     c_bands:  3 eigenvalues not converged
     c_bands:  3 eigenvalues not converged
     c_bands:  1 eigenvalues not converged
     c_bands:  4 eigenvalues not converged
     c_bands:  1 eigenvalues not converged
     c_bands:  1 eigenvalues not converged
     c_bands:  1 eigenvalues not converged
     c_bands:  3 eigenvalues not converged
     c_bands:  1 eigenvalues not converged
     c_bands:  1 eigenvalues not converged
     c_bands:  3 eigenvalues not converged
     c_bands:  4 eigenvalues not converged
     c_bands:  1 eigenvalues not converged
     c_bands:  3 eigenvalues not converged
     c_bands:  2 eigenvalues not converged
     c_bands:  1 eigenvalues not converged
     c_bands:  2 eigenvalues not converged
     c_bands:  1 eigenvalues not converged
     c_bands:  1 eigenvalues not converged
     c_bands:  2 eigenvalues not converged
     c_bands:  2 eigenvalues not converged
     c_bands:  1 eigenvalues not converged
[...]

     iteration # 23     ecut=    90.00 Ry     beta= 0.20
     CG style diagonalization
     ethr =  2.93E-10,  avg # of iterations =  3.3

     negative rho (up, down):  1.244E-04 3.520E-05

     total cpu time spent up to now is   133704.9 secs

     total energy              =   -2689.93732171 Ry
     estimated scf accuracy    <       0.00000024 Ry

     total magnetization       =    -7.41 Bohr mag/cell
     absolute magnetization    =    13.23 Bohr mag/cell

     iteration # 24     ecut=    90.00 Ry     beta= 0.20
     CG style diagonalization
     ethr =  1.77E-10,  avg # of iterations =  3.3

     negative rho (up, down):  1.244E-04 3.519E-05

     total cpu time spent up to now is   133738.3 secs

     total energy              =   -2689.93732180 Ry
     estimated scf accuracy    <       0.00000046 Ry

     total magnetization       =    -7.41 Bohr mag/cell
     absolute magnetization    =    13.23 Bohr mag/cell

     iteration # 25     ecut=    90.00 Ry     beta= 0.20
     CG style diagonalization
     ethr =  1.77E-10,  avg # of iterations =  3.1

     negative rho (up, down):  1.244E-04 3.519E-05

     total cpu time spent up to now is   133769.9 secs

     total energy              =   -2689.93732180 Ry
     estimated scf accuracy    <       0.00000049 Ry

     total magnetization       =    -7.41 Bohr mag/cell
     absolute magnetization    =    13.23 Bohr mag/cell

     iteration # 26     ecut=    90.00 Ry     beta= 0.20
     CG style diagonalization
     ethr =  1.77E-10,  avg # of iterations =  3.0

     negative rho (up, down):  1.244E-04 3.519E-05

     total cpu time spent up to now is   133801.0 secs

     total energy              =   -2689.93732181 Ry
     estimated scf accuracy    <       0.00000039 Ry

     total magnetization       =    -7.41 Bohr mag/cell
     absolute magnetization    =    13.23 Bohr mag/cell

     iteration # 27     ecut=    90.00 Ry     beta= 0.20
     CG style diagonalization
     ethr =  1.77E-10,  avg # of iterations =  3.0

     negative rho (up, down):  1.244E-04 3.518E-05

     total cpu time spent up to now is   133832.0 secs

     total energy              =   -2689.93732184 Ry
     estimated scf accuracy    <       0.00000054 Ry

     total magnetization       =    -7.41 Bohr mag/cell
     absolute magnetization    =    13.23 Bohr mag/cell

     iteration # 28     ecut=    90.00 Ry     beta= 0.20
     CG style diagonalization
     ethr =  1.77E-10,  avg # of iterations =  3.0

     negative rho (up, down):  1.244E-04 3.518E-05

     total cpu time spent up to now is   133862.9 secs

     total energy              =   -2689.93732186 Ry
     estimated scf accuracy    <       0.00000030 Ry

     total magnetization       =    -7.41 Bohr mag/cell
     absolute magnetization    =    13.23 Bohr mag/cell

     iteration # 29     ecut=    90.00 Ry     beta= 0.20
     CG style diagonalization
     ethr =  1.77E-10,  avg # of iterations =  3.0

     negative rho (up, down):  1.243E-04 3.518E-05

     total cpu time spent up to now is   133893.9 secs

     total energy              =   -2689.93732187 Ry
     estimated scf accuracy    <       0.00000011 Ry

     total magnetization       =    -7.41 Bohr mag/cell
     absolute magnetization    =    13.23 Bohr mag/cell

     iteration # 30     ecut=    90.00 Ry     beta= 0.20
     CG style diagonalization
     ethr =  8.28E-11,  avg # of iterations =  3.0

     negative rho (up, down):  1.243E-04 3.518E-05

     total cpu time spent up to now is   133924.9 secs

     total energy              =   -2689.93732188 Ry
     estimated scf accuracy    <       0.00000006 Ry

     total magnetization       =    -7.41 Bohr mag/cell
     absolute magnetization    =    13.23 Bohr mag/cell

     iteration # 31     ecut=    90.00 Ry     beta= 0.20
     CG style diagonalization
     ethr =  4.65E-11,  avg # of iterations =  3.0

     negative rho (up, down):  1.243E-04 3.517E-05

     total cpu time spent up to now is   133955.9 secs

     total energy              =   -2689.93732189 Ry
     estimated scf accuracy    <       0.00000005 Ry

     total magnetization       =    -7.41 Bohr mag/cell
     absolute magnetization    =    13.23 Bohr mag/cell

     iteration # 32     ecut=    90.00 Ry     beta= 0.20
     CG style diagonalization
     ethr =  3.44E-11,  avg # of iterations =  3.0

     negative rho (up, down):  1.243E-04 3.517E-05

     total cpu time spent up to now is   133986.9 secs

     total energy              =   -2689.93732191 Ry
     estimated scf accuracy    <       0.00000007 Ry

     total magnetization       =    -7.41 Bohr mag/cell
     absolute magnetization    =    13.23 Bohr mag/cell

     iteration # 33     ecut=    90.00 Ry     beta= 0.20
     CG style diagonalization
     ethr =  3.44E-11,  avg # of iterations =  3.0

     negative rho (up, down):  1.243E-04 3.516E-05

     total cpu time spent up to now is   134018.0 secs

     total energy              =   -2689.93732191 Ry
     estimated scf accuracy    <       0.00000009 Ry

     total magnetization       =    -7.41 Bohr mag/cell
     absolute magnetization    =    13.23 Bohr mag/cell

     iteration # 34     ecut=    90.00 Ry     beta= 0.20
     CG style diagonalization
     ethr =  3.44E-11,  avg # of iterations =  3.0

     negative rho (up, down):  1.243E-04 3.517E-05

     total cpu time spent up to now is   134048.9 secs

     total energy              =   -2689.93732190 Ry
     estimated scf accuracy    <       0.00000009 Ry

     total magnetization       =    -7.41 Bohr mag/cell
     absolute magnetization    =    13.23 Bohr mag/cell

     iteration # 35     ecut=    90.00 Ry     beta= 0.20
     CG style diagonalization
     ethr =  3.44E-11,  avg # of iterations =  3.0

     negative rho (up, down):  1.243E-04 3.516E-05

     total cpu time spent up to now is   134080.0 secs

     total energy              =   -2689.93732191 Ry
     estimated scf accuracy    <       0.00000011 Ry

     total magnetization       =    -7.41 Bohr mag/cell
     absolute magnetization    =    13.23 Bohr mag/cell

     iteration # 36     ecut=    90.00 Ry     beta= 0.20
     CG style diagonalization
     ethr =  3.44E-11,  avg # of iterations =  3.0

     negative rho (up, down):  1.243E-04 3.516E-05

     total cpu time spent up to now is   134110.9 secs

     total energy              =   -2689.93732192 Ry
     estimated scf accuracy    <       0.00000007 Ry

     total magnetization       =    -7.41 Bohr mag/cell
     absolute magnetization    =    13.23 Bohr mag/cell

     iteration # 37     ecut=    90.00 Ry     beta= 0.20
     CG style diagonalization
     ethr =  3.44E-11,  avg # of iterations =  3.0

     negative rho (up, down):  1.243E-04 3.516E-05

     total cpu time spent up to now is   134141.9 secs

     total energy              =   -2689.93732192 Ry
     estimated scf accuracy    <       0.00000003 Ry

     total magnetization       =    -7.41 Bohr mag/cell
     absolute magnetization    =    13.23 Bohr mag/cell

     iteration # 38     ecut=    90.00 Ry     beta= 0.20
     CG style diagonalization
     ethr =  2.28E-11,  avg # of iterations =  3.0

     negative rho (up, down):  1.243E-04 3.516E-05

     total cpu time spent up to now is   134172.9 secs

     total energy              =   -2689.93732192 Ry
     estimated scf accuracy    <       0.00000002 Ry

     total magnetization       =    -7.41 Bohr mag/cell
     absolute magnetization    =    13.23 Bohr mag/cell

     iteration # 39     ecut=    90.00 Ry     beta= 0.20
     CG style diagonalization
     ethr =  1.33E-11,  avg # of iterations =  3.0

     negative rho (up, down):  1.243E-04 3.516E-05

     total cpu time spent up to now is   134203.9 secs

     total energy              =   -2689.93732193 Ry
     estimated scf accuracy    <       0.00000001 Ry

     total magnetization       =    -7.41 Bohr mag/cell
     absolute magnetization    =    13.23 Bohr mag/cell

     iteration # 40     ecut=    90.00 Ry     beta= 0.20
     CG style diagonalization
     ethr =  7.52E-12,  avg # of iterations =  3.0

     negative rho (up, down):  1.243E-04 3.516E-05

     total cpu time spent up to now is   134234.9 secs

     total energy              =   -2689.93732193 Ry
     estimated scf accuracy    <       0.00000001 Ry

     total magnetization       =    -7.41 Bohr mag/cell
     absolute magnetization    =    13.23 Bohr mag/cell

     iteration # 41     ecut=    90.00 Ry     beta= 0.20
     CG style diagonalization
     ethr =  7.52E-12,  avg # of iterations =  3.0

     negative rho (up, down):  1.243E-04 3.515E-05

     total cpu time spent up to now is   134266.0 secs

     total energy              =   -2689.93732193 Ry
     estimated scf accuracy    <       0.00000003 Ry

     total magnetization       =    -7.41 Bohr mag/cell
     absolute magnetization    =    13.23 Bohr mag/cell

     iteration # 42     ecut=    90.00 Ry     beta= 0.20
     CG style diagonalization
     ethr =  7.52E-12,  avg # of iterations =  3.0

     negative rho (up, down):  1.243E-04 3.515E-05

     total cpu time spent up to now is   134297.1 secs

     total energy              =   -2689.93732193 Ry
     estimated scf accuracy    <       0.00000003 Ry

     total magnetization       =    -7.41 Bohr mag/cell
     absolute magnetization    =    13.23 Bohr mag/cell

     iteration # 43     ecut=    90.00 Ry     beta= 0.20
     CG style diagonalization
     ethr =  7.52E-12,  avg # of iterations =  3.0

     negative rho (up, down):  1.243E-04 3.515E-05

     total cpu time spent up to now is   134328.2 secs

     total energy              =   -2689.93732193 Ry
     estimated scf accuracy    <       0.00000002 Ry

     total magnetization       =    -7.41 Bohr mag/cell
     absolute magnetization    =    13.23 Bohr mag/cell

     iteration # 44     ecut=    90.00 Ry     beta= 0.20
     CG style diagonalization
     ethr =  7.52E-12,  avg # of iterations =  3.0

     negative rho (up, down):  1.243E-04 3.515E-05

     total cpu time spent up to now is   134359.2 secs

     total energy              =   -2689.93732193 Ry
     estimated scf accuracy    <       0.00000002 Ry

     total magnetization       =    -7.41 Bohr mag/cell
     absolute magnetization    =    13.23 Bohr mag/cell

     iteration # 45     ecut=    90.00 Ry     beta= 0.20
     CG style diagonalization
     ethr =  7.52E-12,  avg # of iterations =  3.0

     negative rho (up, down):  1.243E-04 3.515E-05

     Magnetic moment per site:
     atom:    1    charge:   16.1344    magn:   -0.8382    constr:    0.0000
     atom:    2    charge:   13.7896    magn:    2.4923    constr:    0.0000
     atom:    3    charge:   16.1429    magn:   -0.3631    constr:    0.0000
     atom:    4    charge:   13.7830    magn:   -2.7302    constr:    0.0000
     atom:    5    charge:   16.1137    magn:   -0.2327    constr:    0.0000
     atom:    6    charge:   13.8029    magn:   -2.7542    constr:    0.0000
     atom:    7    charge:   16.1524    magn:   -0.2479    constr:    0.0000
     atom:    8    charge:   13.7871    magn:   -2.6627    constr:    0.0000

     total cpu time spent up to now is   134390.1 secs

     End of self-consistent calculation

     Number of k-points >= 100: set verbosity='high' to print the bands.

     the Fermi energy is    16.1065 ev

!    total energy              =   -2689.93732193 Ry
     estimated scf accuracy    <          8.2E-09 Ry
     smearing contrib. (-TS)   =      -0.00679879 Ry
     internal energy E=F+TS    =   -2689.93052314 Ry

     total magnetization       =    -7.41 Bohr mag/cell
     absolute magnetization    =    13.23 Bohr mag/cell

     convergence has been achieved in  45 iterations

     negative rho (up, down):  1.243E-04 3.515E-05

     Forces acting on atoms (cartesian axes, Ry/au):

     atom    1 type  1   force =    -0.03588146   -0.00001650   -0.01673797
     atom    2 type  2   force =     0.00318875    0.01276610   -0.01948066
     atom    3 type  1   force =     0.00114068   -0.01166504    0.05265719
     atom    4 type  2   force =     0.00095543   -0.00471742   -0.01017084
     atom    5 type  1   force =     0.00879431   -0.00987639   -0.03077707
     atom    6 type  2   force =     0.00835880   -0.00410352    0.00338296
     atom    7 type  1   force =     0.01750915    0.03044694    0.00868966
     atom    8 type  2   force =    -0.00406565   -0.01283416    0.01243673

     Total force =     0.089567     Total SCF correction =     0.000136


     Computing stress (Cartesian axis) and pressure


     negative rho (up, down):  1.243E-04 3.515E-05
          total   stress  (Ry/bohr**3)                   (kbar)     P=       20.59
   0.00017411   0.00004220   0.00009111           25.61        6.21       13.40
   0.00004220   0.00021303  -0.00005921            6.21       31.34       -8.71
   0.00009111  -0.00005921   0.00003267           13.40       -8.71        4.81


     Entering Dynamics;  it =   102   time =  0.09772 pico-seconds

  new lattice vectors (alat unit) :
   1.003152197   0.018325556   0.008226261
   0.018325556   0.997935356   0.003330725
   0.008226261   0.003330725   1.012152984
  new unit-cell volume =    668.5860 (a.u.)^3
  new positions in cryst coord
Ni      -0.078091607   0.532582257   0.017949571
Fe       0.512603260   0.039206040   0.426302381
Ni       0.009095036   0.010289534   0.577541754
Fe       0.408729175   0.424799674  -0.013567708
Ni       0.575526518  -0.079432044  -0.076199940
Fe      -0.000192425   0.508605433   0.501764171
Ni       0.496011275   0.537920647   0.481138943
Fe       0.076189171   0.025959082   0.085048881
  new positions in cart coord (alat unit)
Ni      -0.068430243   0.530111377   0.019299194
Fe       0.518444434   0.049938729   0.435830620
Ni       0.014063276   0.012358594   0.584669700
Fe       0.417690649   0.431367613  -0.008955392
Ni       0.575258214  -0.068975003  -0.072656131
Fe       0.013255089   0.509223056   0.509554545
Ni       0.511390470   0.547502256   0.492858201
Fe       0.077604683   0.027584969   0.086795693

     Ekin =     0.06038775 Ry    T =  672.5 K  Etot =    -2689.87692962
     new unit-cell volume =    668.58603 a.u.^3 (    99.07423 Ang^3 )
     density =      7.67888 g/cm^3

CELL_PARAMETERS (angstrom)
   4.622124063   0.084436833   0.037903320
   0.084436833   4.598086948   0.015346648
   0.037903320   0.015346648   4.663596090

ATOMIC_POSITIONS (angstrom)
Ni           -0.3152991896        2.4425411828        0.0889229685
Fe            2.3887845723        0.2300976890        2.0081331634
Ni            0.0647979483        0.0569434589        2.6939241096
Fe            1.9245514341        1.9875694132       -0.0412628649
Ni            2.6505597446       -0.3178092240       -0.3347703905
Fe            0.0610741471        2.3462961513        2.3478235218
Ni            2.3562827284        2.5226713965        2.2708934476
Fe            0.3575713385        0.1271005046        0.3999198347



     Maximum number of iterations reached, stopping

     init_run     :     13.11s CPU     13.65s WALL (       1 calls)
     electrons    : 128464.47s CPU 132095.94s WALL (     102 calls)
     update_pot   :    215.92s CPU    218.41s WALL (     101 calls)
     forces       :    619.46s CPU    646.74s WALL (     102 calls)
     stress       :   1210.02s CPU   1239.77s WALL (     102 calls)

     Called by init_run:
     wfcinit      :     10.57s CPU     10.85s WALL (       1 calls)
     potinit      :      0.77s CPU      0.82s WALL (       1 calls)
     hinit0       :      1.27s CPU      1.33s WALL (       1 calls)

     Called by electrons:
     c_bands      : 113323.79s CPU 115500.37s WALL (    3615 calls)
     sum_band     :  12424.27s CPU  13314.62s WALL (    3615 calls)
     v_of_rho     :    472.38s CPU    550.32s WALL (    3717 calls)
     newd         :   1432.25s CPU   1906.04s WALL (    3717 calls)
     PAW_pot      :    800.74s CPU    803.64s WALL (    3818 calls)
     mix_rho      :     50.00s CPU     63.13s WALL (    3615 calls)

     Called by c_bands:
     init_us_2    :    538.62s CPU    554.79s WALL (  949536 calls)
     ccgdiagg     :  86033.93s CPU  87662.15s WALL (  466989 calls)
     wfcrot       :  26345.87s CPU  26849.87s WALL (  454263 calls)

     Called by *cgdiagg:
     h_psi        :  61662.21s CPU  62886.35s WALL (97151927 calls)
     s_psi        :  20525.17s CPU  20899.49s WALL (******** calls)

     Called by h_psi:
     h_psi:calbec :  13159.77s CPU  13459.88s WALL (97151927 calls)
     vloc_psi     :  36114.50s CPU  36845.09s WALL (97151927 calls)
     add_vuspsi   :  11721.67s CPU  11917.76s WALL (97151927 calls)
     hs_1psi      :  54497.07s CPU  55530.77s WALL (96697664 calls)
     s_1psi       :  18892.99s CPU  19234.78s WALL (96697664 calls)

     General routines
     calbec       :  26579.83s CPU  27210.82s WALL (******** calls)
     fft          :    177.38s CPU    241.64s WALL (   96902 calls)
     ffts         :      5.96s CPU      6.08s WALL (   14664 calls)
     fftw         :  38038.57s CPU  38812.54s WALL (******** calls)
     interpolate  :     19.34s CPU     27.17s WALL (    7434 calls)

     Parallel routines
     fft_scatt_xy :   3670.26s CPU   3734.02s WALL (******** calls)
     fft_scatt_yz :  15823.86s CPU  16219.25s WALL (******** calls)

     PWSCF        :   1d12h18m CPU   1d13h20m WALL


   This run was terminated on:  10:47:20  12Feb2022            

=------------------------------------------------------------------------------=
   JOB DONE.
=------------------------------------------------------------------------------=
Note: The following floating-point exceptions are signalling: IEEE_UNDERFLOW_FLAG IEEE_DENORMAL
Note: The following floating-point exceptions are signalling: IEEE_UNDERFLOW_FLAG IEEE_DENORMAL
Note: The following floating-point exceptions are signalling: IEEE_UNDERFLOW_FLAG IEEE_DENORMAL
Note: The following floating-point exceptions are signalling: IEEE_UNDERFLOW_FLAG IEEE_DENORMAL
Note: The following floating-point exceptions are signalling: IEEE_UNDERFLOW_FLAG IEEE_DENORMAL
Note: The following floating-point exceptions are signalling: IEEE_UNDERFLOW_FLAG IEEE_DENORMAL
Note: The following floating-point exceptions are signalling: IEEE_UNDERFLOW_FLAG IEEE_DENORMAL
Note: The following floating-point exceptions are signalling: IEEE_UNDERFLOW_FLAG IEEE_DENORMAL
Note: The following floating-point exceptions are signalling: IEEE_UNDERFLOW_FLAG IEEE_DENORMAL
Note: The following floating-point exceptions are signalling: IEEE_INVALID_FLAG IEEE_UNDERFLOW_FLAG IEEE_DENORMAL
Note: The following floating-point exceptions are signalling: IEEE_UNDERFLOW_FLAG IEEE_DENORMAL
Note: The following floating-point exceptions are signalling: IEEE_UNDERFLOW_FLAG IEEE_DENORMAL
Note: The following floating-point exceptions are signalling: IEEE_UNDERFLOW_FLAG IEEE_DENORMAL
Note: The following floating-point exceptions are signalling: IEEE_UNDERFLOW_FLAG IEEE_DENORMAL
Note: The following floating-point exceptions are signalling: IEEE_UNDERFLOW_FLAG IEEE_DENORMAL
Note: The following floating-point exceptions are signalling: IEEE_UNDERFLOW_FLAG IEEE_DENORMAL
Note: The following floating-point exceptions are signalling: IEEE_UNDERFLOW_FLAG IEEE_DENORMAL
Note: The following floating-point exceptions are signalling: IEEE_INVALID_FLAG IEEE_UNDERFLOW_FLAG IEEE_DENORMAL
Note: The following floating-point exceptions are signalling: IEEE_UNDERFLOW_FLAG IEEE_DENORMAL
Note: The following floating-point exceptions are signalling: IEEE_UNDERFLOW_FLAG IEEE_DENORMAL
Note: The following floating-point exceptions are signalling: IEEE_UNDERFLOW_FLAG IEEE_DENORMAL
Note: The following floating-point exceptions are signalling: IEEE_UNDERFLOW_FLAG IEEE_DENORMAL
Note: The following floating-point exceptions are signalling: IEEE_INVALID_FLAG IEEE_UNDERFLOW_FLAG IEEE_DENORMAL
Note: The following floating-point exceptions are signalling: IEEE_UNDERFLOW_FLAG IEEE_DENORMAL
