
     Program PWSCF v.6.7MaX starts on  9Feb2022 at 11: 8:51 

     This program is part of the open-source Quantum ESPRESSO suite
     for quantum simulation of materials; please cite
         "P. Giannozzi et al., J. Phys.:Condens. Matter 21 395502 (2009);
         "P. Giannozzi et al., J. Phys.:Condens. Matter 29 465901 (2017);
          URL http://www.quantum-espresso.org", 
     in publications or presentations arising from this work. More details at
     http://www.quantum-espresso.org/quote

     Parallel version (MPI), running on    24 processors

     MPI processes distributed on     1 nodes
     R & G space division:  proc/nbgrp/npool/nimage =      24
     Reading input from /home/kevin/QE_CoCrFeMnNi/CoCrFeMnNi/Opt/binary/Opt-B1-CrNi/Mix/MD/300K_0.0001Gpa-B1-CrNi/300K_0.0001Gpa-B1-CrNi.in

     Current dimensions of program PWSCF are:
     Max number of different atomic species (ntypx) = 10
     Max number of k-points (npk) =  40000
     Max angular momentum in pseudopotentials (lmaxx) =  3

     Subspace diagonalization in iterative solution of the eigenvalue problem:
     a serial algorithm will be used

     Found symmetry operation: I + (  0.0000 -0.5000  0.5000)
     This is a supercell, fractional translations are disabled

     Parallelization info
     --------------------
     sticks:   dense  smooth     PW     G-vecs:    dense   smooth      PW
     Min         281      93     25                17309     3327     483
     Max         282      94     26                17313     3332     486
     Sum        6745    2241    621               415445    79885   11633



     bravais-lattice index     =            0
     lattice parameter (alat)  =       8.8471  a.u.
     unit-cell volume          =     692.4802 (a.u.)^3
     number of atoms/cell      =            8
     number of atomic types    =            2
     number of electrons       =       128.00
     number of Kohn-Sham states=           77
     kinetic-energy cutoff     =      90.0000  Ry
     charge density cutoff     =    1080.0000  Ry
     scf convergence threshold =      1.0E-08
     mixing beta               =       0.2000
     number of iterations used =            4  plain     mixing
     energy convergence thresh.=      0.0E+00
     force convergence thresh. =      0.0E+00
     press convergence thresh. =      0.0E+00
     Exchange-correlation=  SLA  PW   PBX  PBC
                           (   1   4   3   4   0   0   0)
     nstep                     =          102


     celldm(1)=   8.847131  celldm(2)=   0.000000  celldm(3)=   0.000000
     celldm(4)=   0.000000  celldm(5)=   0.000000  celldm(6)=   0.000000

     crystal axes: (cart. coord. in units of alat)
               a(1) = (   1.000000   0.000000   0.000000 )  
               a(2) = (   0.000000   1.000000   0.000000 )  
               a(3) = (   0.000000   0.000000   1.000000 )  

     reciprocal axes: (cart. coord. in units 2 pi/alat)
               b(1) = (  1.000000  0.000000  0.000000 )  
               b(2) = (  0.000000  1.000000  0.000000 )  
               b(3) = (  0.000000  0.000000  1.000000 )  


     PseudoPot. # 1 for Ni read from file:
     /opt/QEpot/SSSP_efficiency_pseudos/ni_pbe_v1.4.uspp.F.UPF
     MD5 check sum: 1ee80287db30b12d2bc1f57a5b5d6409
     Pseudo is Ultrasoft + core correction, Zval = 18.0
     Generated by new atomic code, or converted to UPF format
     Using radial grid of  865 points,  6 beta functions with: 
                l(1) =   0
                l(2) =   0
                l(3) =   1
                l(4) =   1
                l(5) =   2
                l(6) =   2
     Q(r) pseudized with 10 coefficients,  rinner =    0.980   0.980   0.980
                                                       0.980   0.980

     PseudoPot. # 2 for Cr read from file:
     /opt/QEpot/SSSP_efficiency_pseudos/cr_pbe_v1.5.uspp.F.UPF
     MD5 check sum: 0d52af634a40206e4dee301ad30da4bf
     Pseudo is Ultrasoft + core correction, Zval = 14.0
     Generated by new atomic code, or converted to UPF format
     Using radial grid of  857 points,  6 beta functions with: 
                l(1) =   0
                l(2) =   0
                l(3) =   1
                l(4) =   1
                l(5) =   2
                l(6) =   2
     Q(r) pseudized with  8 coefficients,  rinner =    0.950   0.950   0.950
                                                       0.950   0.950

     atomic species   valence    mass     pseudopotential
        Ni            18.00    58.69300     Ni( 1.00)
        Cr            14.00    51.99610     Cr( 1.00)

      cell mass =  33.64545 AMU 

     Starting magnetic structure 
     atomic species   magnetization
        Ni           0.000
        Cr           0.000

     No symmetry found



   Cartesian axes

     site n.     atom                  positions (alat units)
         1           Ni  tau(   1) = (   0.0000000   0.5000000   1.0000000  )
         2           Cr  tau(   2) = (   0.5000000   0.0000000   0.5000000  )
         3           Ni  tau(   3) = (   0.0000000   1.0000000   0.5000000  )
         4           Cr  tau(   4) = (   0.5000000   0.5000000   0.0000000  )
         5           Ni  tau(   5) = (   0.5000000   0.0000000   0.0000000  )
         6           Cr  tau(   6) = (   0.0000000   0.5000000   0.5000000  )
         7           Ni  tau(   7) = (   0.5000000   0.5000000   0.5000000  )
         8           Cr  tau(   8) = (   0.0000000   0.0000000   0.0000000  )

     number of k points=    63  Gaussian smearing, width (Ry)=  0.0100
                       cart. coord. in units 2pi/alat
        k(    1) = (   0.0000000   0.0000000   0.0000000), wk =   0.0080000
        k(    2) = (   0.0000000   0.0000000   0.2000000), wk =   0.0160000
        k(    3) = (   0.0000000   0.0000000   0.4000000), wk =   0.0160000
        k(    4) = (   0.0000000   0.2000000   0.0000000), wk =   0.0160000
        k(    5) = (   0.0000000   0.2000000   0.2000000), wk =   0.0160000
        k(    6) = (   0.0000000   0.2000000   0.4000000), wk =   0.0160000
        k(    7) = (   0.0000000   0.2000000  -0.4000000), wk =   0.0160000
        k(    8) = (   0.0000000   0.2000000  -0.2000000), wk =   0.0160000
        k(    9) = (   0.0000000   0.4000000   0.0000000), wk =   0.0160000
        k(   10) = (   0.0000000   0.4000000   0.2000000), wk =   0.0160000
        k(   11) = (   0.0000000   0.4000000   0.4000000), wk =   0.0160000
        k(   12) = (   0.0000000   0.4000000  -0.4000000), wk =   0.0160000
        k(   13) = (   0.0000000   0.4000000  -0.2000000), wk =   0.0160000
        k(   14) = (   0.2000000   0.0000000   0.0000000), wk =   0.0160000
        k(   15) = (   0.2000000   0.0000000   0.2000000), wk =   0.0160000
        k(   16) = (   0.2000000   0.0000000   0.4000000), wk =   0.0160000
        k(   17) = (   0.2000000   0.0000000  -0.4000000), wk =   0.0160000
        k(   18) = (   0.2000000   0.0000000  -0.2000000), wk =   0.0160000
        k(   19) = (   0.2000000   0.2000000   0.0000000), wk =   0.0160000
        k(   20) = (   0.2000000   0.2000000   0.2000000), wk =   0.0160000
        k(   21) = (   0.2000000   0.2000000   0.4000000), wk =   0.0160000
        k(   22) = (   0.2000000   0.2000000  -0.4000000), wk =   0.0160000
        k(   23) = (   0.2000000   0.2000000  -0.2000000), wk =   0.0160000
        k(   24) = (   0.2000000   0.4000000   0.0000000), wk =   0.0160000
        k(   25) = (   0.2000000   0.4000000   0.2000000), wk =   0.0160000
        k(   26) = (   0.2000000   0.4000000   0.4000000), wk =   0.0160000
        k(   27) = (   0.2000000   0.4000000  -0.4000000), wk =   0.0160000
        k(   28) = (   0.2000000   0.4000000  -0.2000000), wk =   0.0160000
        k(   29) = (   0.2000000  -0.4000000   0.0000000), wk =   0.0160000
        k(   30) = (   0.2000000  -0.4000000   0.2000000), wk =   0.0160000
        k(   31) = (   0.2000000  -0.4000000   0.4000000), wk =   0.0160000
        k(   32) = (   0.2000000  -0.4000000  -0.4000000), wk =   0.0160000
        k(   33) = (   0.2000000  -0.4000000  -0.2000000), wk =   0.0160000
        k(   34) = (   0.2000000  -0.2000000   0.0000000), wk =   0.0160000
        k(   35) = (   0.2000000  -0.2000000   0.2000000), wk =   0.0160000
        k(   36) = (   0.2000000  -0.2000000   0.4000000), wk =   0.0160000
        k(   37) = (   0.2000000  -0.2000000  -0.4000000), wk =   0.0160000
        k(   38) = (   0.2000000  -0.2000000  -0.2000000), wk =   0.0160000
        k(   39) = (   0.4000000   0.0000000   0.0000000), wk =   0.0160000
        k(   40) = (   0.4000000   0.0000000   0.2000000), wk =   0.0160000
        k(   41) = (   0.4000000   0.0000000   0.4000000), wk =   0.0160000
        k(   42) = (   0.4000000   0.0000000  -0.4000000), wk =   0.0160000
        k(   43) = (   0.4000000   0.0000000  -0.2000000), wk =   0.0160000
        k(   44) = (   0.4000000   0.2000000   0.0000000), wk =   0.0160000
        k(   45) = (   0.4000000   0.2000000   0.2000000), wk =   0.0160000
        k(   46) = (   0.4000000   0.2000000   0.4000000), wk =   0.0160000
        k(   47) = (   0.4000000   0.2000000  -0.4000000), wk =   0.0160000
        k(   48) = (   0.4000000   0.2000000  -0.2000000), wk =   0.0160000
        k(   49) = (   0.4000000   0.4000000   0.0000000), wk =   0.0160000
        k(   50) = (   0.4000000   0.4000000   0.2000000), wk =   0.0160000
        k(   51) = (   0.4000000   0.4000000   0.4000000), wk =   0.0160000
        k(   52) = (   0.4000000   0.4000000  -0.4000000), wk =   0.0160000
        k(   53) = (   0.4000000   0.4000000  -0.2000000), wk =   0.0160000
        k(   54) = (   0.4000000  -0.4000000   0.0000000), wk =   0.0160000
        k(   55) = (   0.4000000  -0.4000000   0.2000000), wk =   0.0160000
        k(   56) = (   0.4000000  -0.4000000   0.4000000), wk =   0.0160000
        k(   57) = (   0.4000000  -0.4000000  -0.4000000), wk =   0.0160000
        k(   58) = (   0.4000000  -0.4000000  -0.2000000), wk =   0.0160000
        k(   59) = (   0.4000000  -0.2000000   0.0000000), wk =   0.0160000
        k(   60) = (   0.4000000  -0.2000000   0.2000000), wk =   0.0160000
        k(   61) = (   0.4000000  -0.2000000   0.4000000), wk =   0.0160000
        k(   62) = (   0.4000000  -0.2000000  -0.4000000), wk =   0.0160000
        k(   63) = (   0.4000000  -0.2000000  -0.2000000), wk =   0.0160000

     Dense  grid:   415445 G-vectors     FFT dimensions: (  96,  96,  96)

     Smooth grid:    79885 G-vectors     FFT dimensions: (  54,  54,  54)

     Estimated max dynamical RAM per process >     139.63 MB

     Estimated total dynamical RAM >       3.27 GB

     Check: negative core charge=   -0.000007
     Generating pointlists ...
     new r_m :   0.2063 (alat units)  1.8247 (a.u.) for type    1
     new r_m :   0.2063 (alat units)  1.8247 (a.u.) for type    2

     Initial potential from superposition of free atoms

     starting charge  115.99994, renormalised to  128.00000

     negative rho (up, down):  1.789E-03 1.789E-03
     Starting wfcs are   92 randomized atomic wfcs

     total cpu time spent up to now is       13.6 secs

     Self-consistent Calculation

     iteration #  1     ecut=    90.00 Ry     beta= 0.20
     Davidson diagonalization with overlap
     ethr =  1.00E-02,  avg # of iterations =  5.8

     negative rho (up, down):  1.491E-03 1.489E-03

     total cpu time spent up to now is       65.0 secs

     total energy              =   -2043.65263069 Ry
     estimated scf accuracy    <     206.84356150 Ry

     total magnetization       =    -0.01 Bohr mag/cell
     absolute magnetization    =     0.02 Bohr mag/cell

     iteration #  2     ecut=    90.00 Ry     beta= 0.20
     Davidson diagonalization with overlap
     ethr =  1.00E-02,  avg # of iterations =  4.5

     negative rho (up, down):  2.220E-03 2.219E-03

     total cpu time spent up to now is      112.8 secs

     total energy              =   -2074.96486246 Ry
     estimated scf accuracy    <      51.46788349 Ry

     total magnetization       =     0.00 Bohr mag/cell
     absolute magnetization    =     0.01 Bohr mag/cell

     iteration #  3     ecut=    90.00 Ry     beta= 0.20
     Davidson diagonalization with overlap
     ethr =  1.00E-02,  avg # of iterations =  3.8

     negative rho (up, down):  7.223E-03 7.221E-03

     total cpu time spent up to now is      146.6 secs

     total energy              =   -2065.27140848 Ry
     estimated scf accuracy    <      16.34540591 Ry

     total magnetization       =     0.00 Bohr mag/cell
     absolute magnetization    =     0.01 Bohr mag/cell

     iteration #  4     ecut=    90.00 Ry     beta= 0.20
     Davidson diagonalization with overlap
     ethr =  1.00E-02,  avg # of iterations =  5.0

     negative rho (up, down):  1.955E-03 1.954E-03

     total cpu time spent up to now is      192.1 secs

     total energy              =   -2053.15674058 Ry
     estimated scf accuracy    <     237.12623560 Ry

     total magnetization       =    -0.00 Bohr mag/cell
     absolute magnetization    =     0.01 Bohr mag/cell

     iteration #  5     ecut=    90.00 Ry     beta= 0.20
     Davidson diagonalization with overlap
     ethr =  1.00E-02,  avg # of iterations =  5.3

     negative rho (up, down):  2.248E-03 2.247E-03

     total cpu time spent up to now is      238.7 secs

     total energy              =   -2072.51967104 Ry
     estimated scf accuracy    <      13.17033095 Ry

     total magnetization       =     0.01 Bohr mag/cell
     absolute magnetization    =     0.01 Bohr mag/cell

     iteration #  6     ecut=    90.00 Ry     beta= 0.20
     Davidson diagonalization with overlap
     ethr =  1.00E-02,  avg # of iterations =  2.1

     negative rho (up, down):  2.008E-03 2.007E-03

     total cpu time spent up to now is      267.5 secs

     total energy              =   -2073.25767323 Ry
     estimated scf accuracy    <      14.39355213 Ry

     total magnetization       =     0.00 Bohr mag/cell
     absolute magnetization    =     0.02 Bohr mag/cell

     iteration #  7     ecut=    90.00 Ry     beta= 0.20
     Davidson diagonalization with overlap
     ethr =  1.00E-02,  avg # of iterations =  1.4

     negative rho (up, down):  1.971E-03 1.970E-03

     total cpu time spent up to now is      293.1 secs

     total energy              =   -2074.67526501 Ry
     estimated scf accuracy    <       1.42625033 Ry

     total magnetization       =     0.00 Bohr mag/cell
     absolute magnetization    =     0.01 Bohr mag/cell

     iteration #  8     ecut=    90.00 Ry     beta= 0.20
     Davidson diagonalization with overlap
     ethr =  1.11E-03,  avg # of iterations =  1.2

     negative rho (up, down):  1.973E-03 1.973E-03

     total cpu time spent up to now is      317.9 secs

     total energy              =   -2074.64510192 Ry
     estimated scf accuracy    <       2.16901457 Ry

     total magnetization       =     0.00 Bohr mag/cell
     absolute magnetization    =     0.01 Bohr mag/cell

     iteration #  9     ecut=    90.00 Ry     beta= 0.20
     Davidson diagonalization with overlap
     ethr =  1.11E-03,  avg # of iterations =  1.0

     negative rho (up, down):  1.935E-03 1.934E-03

     total cpu time spent up to now is      341.9 secs

     total energy              =   -2074.62134567 Ry
     estimated scf accuracy    <       1.74888713 Ry

     total magnetization       =     0.00 Bohr mag/cell
     absolute magnetization    =     0.00 Bohr mag/cell

     iteration # 10     ecut=    90.00 Ry     beta= 0.20
     Davidson diagonalization with overlap
     ethr =  1.11E-03,  avg # of iterations =  1.0

     negative rho (up, down):  1.810E-03 1.809E-03

     total cpu time spent up to now is      366.0 secs

     total energy              =   -2074.47706066 Ry
     estimated scf accuracy    <       1.44329729 Ry

     total magnetization       =     0.00 Bohr mag/cell
     absolute magnetization    =     0.00 Bohr mag/cell

     iteration # 11     ecut=    90.00 Ry     beta= 0.20
     Davidson diagonalization with overlap
     ethr =  1.11E-03,  avg # of iterations =  1.1

     negative rho (up, down):  1.673E-03 1.672E-03

     total cpu time spent up to now is      390.3 secs

     total energy              =   -2074.50339418 Ry
     estimated scf accuracy    <       0.19777174 Ry

     total magnetization       =    -0.00 Bohr mag/cell
     absolute magnetization    =     0.01 Bohr mag/cell

     iteration # 12     ecut=    90.00 Ry     beta= 0.20
     Davidson diagonalization with overlap
     ethr =  1.55E-04,  avg # of iterations =  2.7

     negative rho (up, down):  1.556E-03 1.556E-03

     total cpu time spent up to now is      419.6 secs

     total energy              =   -2074.51325988 Ry
     estimated scf accuracy    <       0.07909305 Ry

     total magnetization       =     0.00 Bohr mag/cell
     absolute magnetization    =     0.01 Bohr mag/cell

     iteration # 13     ecut=    90.00 Ry     beta= 0.20
     Davidson diagonalization with overlap
     ethr =  6.18E-05,  avg # of iterations =  1.1

     negative rho (up, down):  1.605E-03 1.605E-03

     total cpu time spent up to now is      444.0 secs

     total energy              =   -2074.51210734 Ry
     estimated scf accuracy    <       0.03002293 Ry

     total magnetization       =    -0.00 Bohr mag/cell
     absolute magnetization    =     0.01 Bohr mag/cell

     iteration # 14     ecut=    90.00 Ry     beta= 0.20
     Davidson diagonalization with overlap
     ethr =  2.35E-05,  avg # of iterations =  2.2

     negative rho (up, down):  1.602E-03 1.602E-03

     total cpu time spent up to now is      472.1 secs

     total energy              =   -2074.51253662 Ry
     estimated scf accuracy    <       0.12796092 Ry

     total magnetization       =    -0.00 Bohr mag/cell
     absolute magnetization    =     0.01 Bohr mag/cell

     iteration # 15     ecut=    90.00 Ry     beta= 0.20
     Davidson diagonalization with overlap
     ethr =  2.35E-05,  avg # of iterations =  1.0

     negative rho (up, down):  1.591E-03 1.591E-03

     total cpu time spent up to now is      496.2 secs

     total energy              =   -2074.51579307 Ry
     estimated scf accuracy    <       0.00746537 Ry

     total magnetization       =     0.00 Bohr mag/cell
     absolute magnetization    =     0.01 Bohr mag/cell

     iteration # 16     ecut=    90.00 Ry     beta= 0.20
     Davidson diagonalization with overlap
     ethr =  5.83E-06,  avg # of iterations =  2.0

     negative rho (up, down):  1.584E-03 1.584E-03

     total cpu time spent up to now is      522.3 secs

     total energy              =   -2074.51550522 Ry
     estimated scf accuracy    <       0.02399858 Ry

     total magnetization       =    -0.00 Bohr mag/cell
     absolute magnetization    =     0.01 Bohr mag/cell

     iteration # 17     ecut=    90.00 Ry     beta= 0.20
     Davidson diagonalization with overlap
     ethr =  5.83E-06,  avg # of iterations =  1.0

     negative rho (up, down):  1.590E-03 1.590E-03

     total cpu time spent up to now is      546.4 secs

     total energy              =   -2074.51593125 Ry
     estimated scf accuracy    <       0.00260065 Ry

     total magnetization       =    -0.00 Bohr mag/cell
     absolute magnetization    =     0.01 Bohr mag/cell

     iteration # 18     ecut=    90.00 Ry     beta= 0.20
     Davidson diagonalization with overlap
     ethr =  2.03E-06,  avg # of iterations =  1.4

     negative rho (up, down):  1.592E-03 1.592E-03

     total cpu time spent up to now is      571.5 secs

     total energy              =   -2074.51585943 Ry
     estimated scf accuracy    <       0.00622096 Ry

     total magnetization       =    -0.00 Bohr mag/cell
     absolute magnetization    =     0.01 Bohr mag/cell

     iteration # 19     ecut=    90.00 Ry     beta= 0.20
     Davidson diagonalization with overlap
     ethr =  2.03E-06,  avg # of iterations =  1.0

     negative rho (up, down):  1.592E-03 1.592E-03

     total cpu time spent up to now is      595.6 secs

     total energy              =   -2074.51592783 Ry
     estimated scf accuracy    <       0.00656229 Ry

     total magnetization       =    -0.00 Bohr mag/cell
     absolute magnetization    =     0.01 Bohr mag/cell

     iteration # 20     ecut=    90.00 Ry     beta= 0.20
     Davidson diagonalization with overlap
     ethr =  2.03E-06,  avg # of iterations =  1.0

     negative rho (up, down):  1.592E-03 1.592E-03

     total cpu time spent up to now is      619.6 secs

     total energy              =   -2074.51608346 Ry
     estimated scf accuracy    <       0.00066074 Ry

     total magnetization       =    -0.00 Bohr mag/cell
     absolute magnetization    =     0.01 Bohr mag/cell

     iteration # 21     ecut=    90.00 Ry     beta= 0.20
     Davidson diagonalization with overlap
     ethr =  5.16E-07,  avg # of iterations =  1.0

     negative rho (up, down):  1.594E-03 1.594E-03

     total cpu time spent up to now is      643.6 secs

     total energy              =   -2074.51609374 Ry
     estimated scf accuracy    <       0.00053561 Ry

     total magnetization       =    -0.00 Bohr mag/cell
     absolute magnetization    =     0.01 Bohr mag/cell

     iteration # 22     ecut=    90.00 Ry     beta= 0.20
     Davidson diagonalization with overlap
     ethr =  4.18E-07,  avg # of iterations =  1.0

     negative rho (up, down):  1.594E-03 1.594E-03

     total cpu time spent up to now is      667.6 secs

     total energy              =   -2074.51604427 Ry
     estimated scf accuracy    <       0.00214842 Ry

     total magnetization       =    -0.00 Bohr mag/cell
     absolute magnetization    =     0.01 Bohr mag/cell

     iteration # 23     ecut=    90.00 Ry     beta= 0.20
     Davidson diagonalization with overlap
     ethr =  4.18E-07,  avg # of iterations =  1.0

     negative rho (up, down):  1.594E-03 1.594E-03

     total cpu time spent up to now is      691.6 secs

     total energy              =   -2074.51608705 Ry
     estimated scf accuracy    <       0.00050279 Ry

     total magnetization       =    -0.00 Bohr mag/cell
     absolute magnetization    =     0.01 Bohr mag/cell

     iteration # 24     ecut=    90.00 Ry     beta= 0.20
     Davidson diagonalization with overlap
     ethr =  3.93E-07,  avg # of iterations =  1.0

     negative rho (up, down):  1.596E-03 1.596E-03

     total cpu time spent up to now is      715.6 secs

     total energy              =   -2074.51605884 Ry
     estimated scf accuracy    <       0.00159903 Ry

     total magnetization       =    -0.00 Bohr mag/cell
     absolute magnetization    =     0.01 Bohr mag/cell

     iteration # 25     ecut=    90.00 Ry     beta= 0.20
     Davidson diagonalization with overlap
     ethr =  3.93E-07,  avg # of iterations =  1.0

     negative rho (up, down):  1.595E-03 1.595E-03

     total cpu time spent up to now is      739.6 secs

     total energy              =   -2074.51606450 Ry
     estimated scf accuracy    <       0.00102679 Ry

     total magnetization       =    -0.00 Bohr mag/cell
     absolute magnetization    =     0.01 Bohr mag/cell

     iteration # 26     ecut=    90.00 Ry     beta= 0.20
     Davidson diagonalization with overlap
     ethr =  3.93E-07,  avg # of iterations =  1.0

     negative rho (up, down):  1.596E-03 1.596E-03

     total cpu time spent up to now is      763.6 secs

     total energy              =   -2074.51609403 Ry
     estimated scf accuracy    <       0.00025479 Ry

     total magnetization       =    -0.00 Bohr mag/cell
     absolute magnetization    =     0.01 Bohr mag/cell

     iteration # 27     ecut=    90.00 Ry     beta= 0.20
     Davidson diagonalization with overlap
     ethr =  1.99E-07,  avg # of iterations =  1.0

     negative rho (up, down):  1.597E-03 1.597E-03

     total cpu time spent up to now is      787.6 secs

     total energy              =   -2074.51609693 Ry
     estimated scf accuracy    <       0.00024969 Ry

     total magnetization       =    -0.00 Bohr mag/cell
     absolute magnetization    =     0.01 Bohr mag/cell

     iteration # 28     ecut=    90.00 Ry     beta= 0.20
     Davidson diagonalization with overlap
     ethr =  1.95E-07,  avg # of iterations =  1.0

     negative rho (up, down):  1.597E-03 1.597E-03

     total cpu time spent up to now is      811.6 secs

     total energy              =   -2074.51608977 Ry
     estimated scf accuracy    <       0.00049125 Ry

     total magnetization       =    -0.00 Bohr mag/cell
     absolute magnetization    =     0.02 Bohr mag/cell

     iteration # 29     ecut=    90.00 Ry     beta= 0.20
     Davidson diagonalization with overlap
     ethr =  1.95E-07,  avg # of iterations =  1.0

     negative rho (up, down):  1.597E-03 1.597E-03

     total cpu time spent up to now is      835.5 secs

     total energy              =   -2074.51609718 Ry
     estimated scf accuracy    <       0.00030201 Ry

     total magnetization       =    -0.00 Bohr mag/cell
     absolute magnetization    =     0.02 Bohr mag/cell

     iteration # 30     ecut=    90.00 Ry     beta= 0.20
     Davidson diagonalization with overlap
     ethr =  1.95E-07,  avg # of iterations =  1.0

     negative rho (up, down):  1.598E-03 1.598E-03

     total cpu time spent up to now is      859.5 secs

     total energy              =   -2074.51610283 Ry
     estimated scf accuracy    <       0.00015712 Ry

     total magnetization       =    -0.00 Bohr mag/cell
     absolute magnetization    =     0.02 Bohr mag/cell

     iteration # 31     ecut=    90.00 Ry     beta= 0.20
     Davidson diagonalization with overlap
     ethr =  1.23E-07,  avg # of iterations =  1.0

     negative rho (up, down):  1.598E-03 1.598E-03

     total cpu time spent up to now is      883.4 secs

     total energy              =   -2074.51609875 Ry
     estimated scf accuracy    <       0.00014494 Ry

     total magnetization       =    -0.00 Bohr mag/cell
     absolute magnetization    =     0.02 Bohr mag/cell

     iteration # 32     ecut=    90.00 Ry     beta= 0.20
     Davidson diagonalization with overlap
     ethr =  1.13E-07,  avg # of iterations =  1.0

     negative rho (up, down):  1.598E-03 1.598E-03

     total cpu time spent up to now is      907.4 secs

     total energy              =   -2074.51610314 Ry
     estimated scf accuracy    <       0.00007842 Ry

     total magnetization       =    -0.00 Bohr mag/cell
     absolute magnetization    =     0.02 Bohr mag/cell

     iteration # 33     ecut=    90.00 Ry     beta= 0.20
     Davidson diagonalization with overlap
     ethr =  6.13E-08,  avg # of iterations =  1.0

     negative rho (up, down):  1.598E-03 1.598E-03

     total cpu time spent up to now is      931.3 secs

     total energy              =   -2074.51610393 Ry
     estimated scf accuracy    <       0.00006021 Ry

     total magnetization       =    -0.00 Bohr mag/cell
     absolute magnetization    =     0.02 Bohr mag/cell

     iteration # 34     ecut=    90.00 Ry     beta= 0.20
     Davidson diagonalization with overlap
     ethr =  4.70E-08,  avg # of iterations =  1.0

     negative rho (up, down):  1.598E-03 1.598E-03

     total cpu time spent up to now is      955.3 secs

     total energy              =   -2074.51610206 Ry
     estimated scf accuracy    <       0.00012408 Ry

     total magnetization       =    -0.00 Bohr mag/cell
     absolute magnetization    =     0.02 Bohr mag/cell

     iteration # 35     ecut=    90.00 Ry     beta= 0.20
     Davidson diagonalization with overlap
     ethr =  4.70E-08,  avg # of iterations =  1.0

     negative rho (up, down):  1.599E-03 1.598E-03

     total cpu time spent up to now is      979.2 secs

     total energy              =   -2074.51610268 Ry
     estimated scf accuracy    <       0.00012070 Ry

     total magnetization       =    -0.00 Bohr mag/cell
     absolute magnetization    =     0.02 Bohr mag/cell

     iteration # 36     ecut=    90.00 Ry     beta= 0.20
     Davidson diagonalization with overlap
     ethr =  4.70E-08,  avg # of iterations =  1.0

     negative rho (up, down):  1.599E-03 1.599E-03

     total cpu time spent up to now is     1003.2 secs

     total energy              =   -2074.51610494 Ry
     estimated scf accuracy    <       0.00005297 Ry

     total magnetization       =    -0.00 Bohr mag/cell
     absolute magnetization    =     0.02 Bohr mag/cell

     iteration # 37     ecut=    90.00 Ry     beta= 0.20
     Davidson diagonalization with overlap
     ethr =  4.14E-08,  avg # of iterations =  1.0

     negative rho (up, down):  1.599E-03 1.599E-03

     total cpu time spent up to now is     1027.1 secs

     total energy              =   -2074.51610403 Ry
     estimated scf accuracy    <       0.00006716 Ry

     total magnetization       =    -0.00 Bohr mag/cell
     absolute magnetization    =     0.02 Bohr mag/cell

     iteration # 38     ecut=    90.00 Ry     beta= 0.20
     Davidson diagonalization with overlap
     ethr =  4.14E-08,  avg # of iterations =  1.0

     negative rho (up, down):  1.599E-03 1.599E-03

     total cpu time spent up to now is     1051.0 secs

     total energy              =   -2074.51610601 Ry
     estimated scf accuracy    <       0.00001272 Ry

     total magnetization       =    -0.00 Bohr mag/cell
     absolute magnetization    =     0.02 Bohr mag/cell

     iteration # 39     ecut=    90.00 Ry     beta= 0.20
     Davidson diagonalization with overlap
     ethr =  9.94E-09,  avg # of iterations =  1.0

     negative rho (up, down):  1.599E-03 1.599E-03

     total cpu time spent up to now is     1074.9 secs

     total energy              =   -2074.51610618 Ry
     estimated scf accuracy    <       0.00002072 Ry

     total magnetization       =    -0.00 Bohr mag/cell
     absolute magnetization    =     0.03 Bohr mag/cell

     iteration # 40     ecut=    90.00 Ry     beta= 0.20
     Davidson diagonalization with overlap
     ethr =  9.94E-09,  avg # of iterations =  1.0

     negative rho (up, down):  1.599E-03 1.599E-03

     total cpu time spent up to now is     1098.8 secs

     total energy              =   -2074.51610604 Ry
     estimated scf accuracy    <       0.00001731 Ry

     total magnetization       =    -0.00 Bohr mag/cell
     absolute magnetization    =     0.03 Bohr mag/cell

     iteration # 41     ecut=    90.00 Ry     beta= 0.20
     Davidson diagonalization with overlap
     ethr =  9.94E-09,  avg # of iterations =  1.0

     negative rho (up, down):  1.599E-03 1.599E-03

     total cpu time spent up to now is     1122.7 secs

     total energy              =   -2074.51610558 Ry
     estimated scf accuracy    <       0.00003790 Ry

     total magnetization       =    -0.00 Bohr mag/cell
     absolute magnetization    =     0.03 Bohr mag/cell

     iteration # 42     ecut=    90.00 Ry     beta= 0.20
     Davidson diagonalization with overlap
     ethr =  9.94E-09,  avg # of iterations =  1.0

     negative rho (up, down):  1.599E-03 1.599E-03

     total cpu time spent up to now is     1146.7 secs

     total energy              =   -2074.51610644 Ry
     estimated scf accuracy    <       0.00002196 Ry

     total magnetization       =    -0.00 Bohr mag/cell
     absolute magnetization    =     0.03 Bohr mag/cell

     iteration # 43     ecut=    90.00 Ry     beta= 0.20
     Davidson diagonalization with overlap
     ethr =  9.94E-09,  avg # of iterations =  1.0

     negative rho (up, down):  1.599E-03 1.599E-03

     total cpu time spent up to now is     1170.6 secs

     total energy              =   -2074.51610652 Ry
     estimated scf accuracy    <       0.00001251 Ry

     total magnetization       =    -0.00 Bohr mag/cell
     absolute magnetization    =     0.03 Bohr mag/cell

     iteration # 44     ecut=    90.00 Ry     beta= 0.20
     Davidson diagonalization with overlap
     ethr =  9.77E-09,  avg # of iterations =  1.0

     negative rho (up, down):  1.600E-03 1.599E-03

     total cpu time spent up to now is     1194.5 secs

     total energy              =   -2074.51610698 Ry
     estimated scf accuracy    <       0.00000523 Ry

     total magnetization       =    -0.00 Bohr mag/cell
     absolute magnetization    =     0.03 Bohr mag/cell

     iteration # 45     ecut=    90.00 Ry     beta= 0.20
     Davidson diagonalization with overlap
     ethr =  4.09E-09,  avg # of iterations =  1.0

     negative rho (up, down):  1.600E-03 1.599E-03

     total cpu time spent up to now is     1218.3 secs

     total energy              =   -2074.51610728 Ry
     estimated scf accuracy    <       0.00000426 Ry

     total magnetization       =    -0.00 Bohr mag/cell
     absolute magnetization    =     0.03 Bohr mag/cell

     iteration # 46     ecut=    90.00 Ry     beta= 0.20
     Davidson diagonalization with overlap
     ethr =  3.33E-09,  avg # of iterations =  1.0

     negative rho (up, down):  1.600E-03 1.600E-03

     total cpu time spent up to now is     1242.2 secs

     total energy              =   -2074.51610741 Ry
     estimated scf accuracy    <       0.00000513 Ry

     total magnetization       =    -0.00 Bohr mag/cell
     absolute magnetization    =     0.04 Bohr mag/cell

     iteration # 47     ecut=    90.00 Ry     beta= 0.20
     Davidson diagonalization with overlap
     ethr =  3.33E-09,  avg # of iterations =  1.0

     negative rho (up, down):  1.600E-03 1.600E-03

     total cpu time spent up to now is     1266.1 secs

     total energy              =   -2074.51610744 Ry
     estimated scf accuracy    <       0.00000402 Ry

     total magnetization       =    -0.00 Bohr mag/cell
     absolute magnetization    =     0.04 Bohr mag/cell

     iteration # 48     ecut=    90.00 Ry     beta= 0.20
     Davidson diagonalization with overlap
     ethr =  3.14E-09,  avg # of iterations =  1.0

     negative rho (up, down):  1.600E-03 1.600E-03

     total cpu time spent up to now is     1289.9 secs

     total energy              =   -2074.51610783 Ry
     estimated scf accuracy    <       0.00000560 Ry

     total magnetization       =    -0.00 Bohr mag/cell
     absolute magnetization    =     0.04 Bohr mag/cell

     iteration # 49     ecut=    90.00 Ry     beta= 0.20
     Davidson diagonalization with overlap
     ethr =  3.14E-09,  avg # of iterations =  1.0

     negative rho (up, down):  1.600E-03 1.600E-03

     total cpu time spent up to now is     1313.8 secs

     total energy              =   -2074.51610793 Ry
     estimated scf accuracy    <       0.00000316 Ry

     total magnetization       =    -0.00 Bohr mag/cell
     absolute magnetization    =     0.04 Bohr mag/cell

     iteration # 50     ecut=    90.00 Ry     beta= 0.20
     Davidson diagonalization with overlap
     ethr =  2.47E-09,  avg # of iterations =  1.0

     negative rho (up, down):  1.600E-03 1.600E-03

     total cpu time spent up to now is     1337.7 secs

     total energy              =   -2074.51610816 Ry
     estimated scf accuracy    <       0.00000220 Ry

     total magnetization       =    -0.00 Bohr mag/cell
     absolute magnetization    =     0.04 Bohr mag/cell

     iteration # 51     ecut=    90.00 Ry     beta= 0.20
     Davidson diagonalization with overlap
     ethr =  1.72E-09,  avg # of iterations =  1.0

     negative rho (up, down):  1.600E-03 1.600E-03

     total cpu time spent up to now is     1361.5 secs

     total energy              =   -2074.51610851 Ry
     estimated scf accuracy    <       0.00000196 Ry

     total magnetization       =    -0.00 Bohr mag/cell
     absolute magnetization    =     0.05 Bohr mag/cell

     iteration # 52     ecut=    90.00 Ry     beta= 0.20
     Davidson diagonalization with overlap
     ethr =  1.53E-09,  avg # of iterations =  1.0

     negative rho (up, down):  1.600E-03 1.600E-03

     total cpu time spent up to now is     1385.3 secs

     total energy              =   -2074.51610835 Ry
     estimated scf accuracy    <       0.00000218 Ry

     total magnetization       =    -0.00 Bohr mag/cell
     absolute magnetization    =     0.05 Bohr mag/cell

     iteration # 53     ecut=    90.00 Ry     beta= 0.20
     Davidson diagonalization with overlap
     ethr =  1.53E-09,  avg # of iterations =  1.0

     negative rho (up, down):  1.600E-03 1.600E-03

     total cpu time spent up to now is     1409.1 secs

     total energy              =   -2074.51610784 Ry
     estimated scf accuracy    <       0.00000300 Ry

     total magnetization       =    -0.00 Bohr mag/cell
     absolute magnetization    =     0.05 Bohr mag/cell

     iteration # 54     ecut=    90.00 Ry     beta= 0.20
     Davidson diagonalization with overlap
     ethr =  1.53E-09,  avg # of iterations =  1.0

     negative rho (up, down):  1.600E-03 1.600E-03

     total cpu time spent up to now is     1433.0 secs

     total energy              =   -2074.51610711 Ry
     estimated scf accuracy    <       0.00000396 Ry

     total magnetization       =    -0.00 Bohr mag/cell
     absolute magnetization    =     0.04 Bohr mag/cell

     iteration # 55     ecut=    90.00 Ry     beta= 0.20
     Davidson diagonalization with overlap
     ethr =  1.53E-09,  avg # of iterations =  1.3

     negative rho (up, down):  1.600E-03 1.600E-03

     total cpu time spent up to now is     1457.7 secs

     total energy              =   -2074.51610717 Ry
     estimated scf accuracy    <       0.00000491 Ry

     total magnetization       =    -0.00 Bohr mag/cell
     absolute magnetization    =     0.04 Bohr mag/cell

     iteration # 56     ecut=    90.00 Ry     beta= 0.20
     Davidson diagonalization with overlap
     ethr =  1.53E-09,  avg # of iterations =  1.0

     negative rho (up, down):  1.600E-03 1.600E-03

     total cpu time spent up to now is     1481.5 secs

     total energy              =   -2074.51610721 Ry
     estimated scf accuracy    <       0.00000205 Ry

     total magnetization       =    -0.00 Bohr mag/cell
     absolute magnetization    =     0.04 Bohr mag/cell

     iteration # 57     ecut=    90.00 Ry     beta= 0.20
     Davidson diagonalization with overlap
     ethr =  1.53E-09,  avg # of iterations =  1.0

     negative rho (up, down):  1.600E-03 1.600E-03

     total cpu time spent up to now is     1505.4 secs

     total energy              =   -2074.51610751 Ry
     estimated scf accuracy    <       0.00000282 Ry

     total magnetization       =    -0.00 Bohr mag/cell
     absolute magnetization    =     0.04 Bohr mag/cell

     iteration # 58     ecut=    90.00 Ry     beta= 0.20
     Davidson diagonalization with overlap
     ethr =  1.53E-09,  avg # of iterations =  1.0

     negative rho (up, down):  1.600E-03 1.600E-03

     total cpu time spent up to now is     1529.2 secs

     total energy              =   -2074.51610768 Ry
     estimated scf accuracy    <       0.00000267 Ry

     total magnetization       =    -0.00 Bohr mag/cell
     absolute magnetization    =     0.04 Bohr mag/cell

     iteration # 59     ecut=    90.00 Ry     beta= 0.20
     Davidson diagonalization with overlap
     ethr =  1.53E-09,  avg # of iterations =  1.0

     negative rho (up, down):  1.600E-03 1.600E-03

     total cpu time spent up to now is     1553.1 secs

     total energy              =   -2074.51610776 Ry
     estimated scf accuracy    <       0.00000224 Ry

     total magnetization       =    -0.00 Bohr mag/cell
     absolute magnetization    =     0.04 Bohr mag/cell

     iteration # 60     ecut=    90.00 Ry     beta= 0.20
     Davidson diagonalization with overlap
     ethr =  1.53E-09,  avg # of iterations =  1.0

     negative rho (up, down):  1.600E-03 1.600E-03

     total cpu time spent up to now is     1576.9 secs

     total energy              =   -2074.51610796 Ry
     estimated scf accuracy    <       0.00000159 Ry

     total magnetization       =    -0.00 Bohr mag/cell
     absolute magnetization    =     0.04 Bohr mag/cell

     iteration # 61     ecut=    90.00 Ry     beta= 0.20
     Davidson diagonalization with overlap
     ethr =  1.24E-09,  avg # of iterations =  1.0

     negative rho (up, down):  1.600E-03 1.600E-03

     total cpu time spent up to now is     1600.7 secs

     total energy              =   -2074.51610802 Ry
     estimated scf accuracy    <       0.00000181 Ry

     total magnetization       =    -0.00 Bohr mag/cell
     absolute magnetization    =     0.04 Bohr mag/cell

     iteration # 62     ecut=    90.00 Ry     beta= 0.20
     Davidson diagonalization with overlap
     ethr =  1.24E-09,  avg # of iterations =  1.0

     negative rho (up, down):  1.600E-03 1.600E-03

     total cpu time spent up to now is     1624.5 secs

     total energy              =   -2074.51610760 Ry
     estimated scf accuracy    <       0.00000196 Ry

     total magnetization       =    -0.00 Bohr mag/cell
     absolute magnetization    =     0.04 Bohr mag/cell

     iteration # 63     ecut=    90.00 Ry     beta= 0.20
     Davidson diagonalization with overlap
     ethr =  1.24E-09,  avg # of iterations =  1.0

     negative rho (up, down):  1.600E-03 1.600E-03

     total cpu time spent up to now is     1648.3 secs

     total energy              =   -2074.51610724 Ry
     estimated scf accuracy    <       0.00000244 Ry

     total magnetization       =    -0.00 Bohr mag/cell
     absolute magnetization    =     0.04 Bohr mag/cell

     iteration # 64     ecut=    90.00 Ry     beta= 0.20
     Davidson diagonalization with overlap
     ethr =  1.24E-09,  avg # of iterations =  1.0

     negative rho (up, down):  1.600E-03 1.600E-03

     total cpu time spent up to now is     1672.2 secs

     total energy              =   -2074.51610622 Ry
     estimated scf accuracy    <       0.00000239 Ry

     total magnetization       =    -0.00 Bohr mag/cell
     absolute magnetization    =     0.04 Bohr mag/cell

     iteration # 65     ecut=    90.00 Ry     beta= 0.20
     Davidson diagonalization with overlap
     ethr =  1.24E-09,  avg # of iterations =  1.5

     negative rho (up, down):  1.600E-03 1.600E-03

     total cpu time spent up to now is     1697.5 secs

     total energy              =   -2074.51610678 Ry
     estimated scf accuracy    <       0.00000273 Ry

     total magnetization       =    -0.00 Bohr mag/cell
     absolute magnetization    =     0.03 Bohr mag/cell

     iteration # 66     ecut=    90.00 Ry     beta= 0.20
     Davidson diagonalization with overlap
     ethr =  1.24E-09,  avg # of iterations =  1.0

     negative rho (up, down):  1.600E-03 1.600E-03

     total cpu time spent up to now is     1721.3 secs

     total energy              =   -2074.51610700 Ry
     estimated scf accuracy    <       0.00000462 Ry

     total magnetization       =    -0.00 Bohr mag/cell
     absolute magnetization    =     0.03 Bohr mag/cell

     iteration # 67     ecut=    90.00 Ry     beta= 0.20
     Davidson diagonalization with overlap
     ethr =  1.24E-09,  avg # of iterations =  1.1

     negative rho (up, down):  1.600E-03 1.600E-03

     total cpu time spent up to now is     1745.3 secs

     total energy              =   -2074.51610707 Ry
     estimated scf accuracy    <       0.00000477 Ry

     total magnetization       =    -0.00 Bohr mag/cell
     absolute magnetization    =     0.03 Bohr mag/cell

     iteration # 68     ecut=    90.00 Ry     beta= 0.20
     Davidson diagonalization with overlap
     ethr =  1.24E-09,  avg # of iterations =  1.0

     negative rho (up, down):  1.600E-03 1.600E-03

     total cpu time spent up to now is     1769.1 secs

     total energy              =   -2074.51610720 Ry
     estimated scf accuracy    <       0.00000158 Ry

     total magnetization       =    -0.00 Bohr mag/cell
     absolute magnetization    =     0.03 Bohr mag/cell

     iteration # 69     ecut=    90.00 Ry     beta= 0.20
     Davidson diagonalization with overlap
     ethr =  1.24E-09,  avg # of iterations =  1.0

     negative rho (up, down):  1.600E-03 1.600E-03

     total cpu time spent up to now is     1792.9 secs

     total energy              =   -2074.51610723 Ry
     estimated scf accuracy    <       0.00000169 Ry

     total magnetization       =    -0.00 Bohr mag/cell
     absolute magnetization    =     0.03 Bohr mag/cell

     iteration # 70     ecut=    90.00 Ry     beta= 0.20
     Davidson diagonalization with overlap
     ethr =  1.24E-09,  avg # of iterations =  1.0

     negative rho (up, down):  1.600E-03 1.600E-03

     total cpu time spent up to now is     1816.7 secs

     total energy              =   -2074.51610756 Ry
     estimated scf accuracy    <       0.00000116 Ry

     total magnetization       =    -0.00 Bohr mag/cell
     absolute magnetization    =     0.04 Bohr mag/cell

     iteration # 71     ecut=    90.00 Ry     beta= 0.20
     Davidson diagonalization with overlap
     ethr =  9.09E-10,  avg # of iterations =  1.0

     negative rho (up, down):  1.600E-03 1.600E-03

     total cpu time spent up to now is     1840.5 secs

     total energy              =   -2074.51610765 Ry
     estimated scf accuracy    <       0.00000191 Ry

     total magnetization       =    -0.00 Bohr mag/cell
     absolute magnetization    =     0.04 Bohr mag/cell

     iteration # 72     ecut=    90.00 Ry     beta= 0.20
     Davidson diagonalization with overlap
     ethr =  9.09E-10,  avg # of iterations =  1.0

     negative rho (up, down):  1.600E-03 1.600E-03

     total cpu time spent up to now is     1864.3 secs

     total energy              =   -2074.51610764 Ry
     estimated scf accuracy    <       0.00000157 Ry

     total magnetization       =    -0.00 Bohr mag/cell
     absolute magnetization    =     0.04 Bohr mag/cell

     iteration # 73     ecut=    90.00 Ry     beta= 0.20
     Davidson diagonalization with overlap
     ethr =  9.09E-10,  avg # of iterations =  1.0

     negative rho (up, down):  1.600E-03 1.600E-03

     total cpu time spent up to now is     1888.0 secs

     total energy              =   -2074.51610755 Ry
     estimated scf accuracy    <       0.00000351 Ry

     total magnetization       =    -0.00 Bohr mag/cell
     absolute magnetization    =     0.04 Bohr mag/cell

     iteration # 74     ecut=    90.00 Ry     beta= 0.20
     Davidson diagonalization with overlap
     ethr =  9.09E-10,  avg # of iterations =  1.0

     negative rho (up, down):  1.600E-03 1.600E-03

     total cpu time spent up to now is     1911.8 secs

     total energy              =   -2074.51610743 Ry
     estimated scf accuracy    <       0.00000187 Ry

     total magnetization       =    -0.00 Bohr mag/cell
     absolute magnetization    =     0.04 Bohr mag/cell

     iteration # 75     ecut=    90.00 Ry     beta= 0.20
     Davidson diagonalization with overlap
     ethr =  9.09E-10,  avg # of iterations =  1.0

     negative rho (up, down):  1.600E-03 1.600E-03

     total cpu time spent up to now is     1935.6 secs

     total energy              =   -2074.51610793 Ry
     estimated scf accuracy    <       0.00000207 Ry

     total magnetization       =    -0.00 Bohr mag/cell
     absolute magnetization    =     0.04 Bohr mag/cell

     iteration # 76     ecut=    90.00 Ry     beta= 0.20
     Davidson diagonalization with overlap
     ethr =  9.09E-10,  avg # of iterations =  1.2

     negative rho (up, down):  1.600E-03 1.600E-03

     total cpu time spent up to now is     1959.8 secs

     total energy              =   -2074.51610820 Ry
     estimated scf accuracy    <       0.00000285 Ry

     total magnetization       =    -0.00 Bohr mag/cell
     absolute magnetization    =     0.05 Bohr mag/cell

     iteration # 77     ecut=    90.00 Ry     beta= 0.20
     Davidson diagonalization with overlap
     ethr =  9.09E-10,  avg # of iterations =  1.0

     negative rho (up, down):  1.600E-03 1.600E-03

     total cpu time spent up to now is     1983.6 secs

     total energy              =   -2074.51610819 Ry
     estimated scf accuracy    <       0.00000353 Ry

     total magnetization       =    -0.00 Bohr mag/cell
     absolute magnetization    =     0.05 Bohr mag/cell

     iteration # 78     ecut=    90.00 Ry     beta= 0.20
     Davidson diagonalization with overlap
     ethr =  9.09E-10,  avg # of iterations =  1.0

     negative rho (up, down):  1.600E-03 1.600E-03

     total cpu time spent up to now is     2007.4 secs

     total energy              =   -2074.51610820 Ry
     estimated scf accuracy    <       0.00000468 Ry

     total magnetization       =    -0.00 Bohr mag/cell
     absolute magnetization    =     0.05 Bohr mag/cell

     iteration # 79     ecut=    90.00 Ry     beta= 0.20
     Davidson diagonalization with overlap
     ethr =  9.09E-10,  avg # of iterations =  1.0

     negative rho (up, down):  1.600E-03 1.600E-03

     total cpu time spent up to now is     2031.1 secs

     total energy              =   -2074.51610823 Ry
     estimated scf accuracy    <       0.00000223 Ry

     total magnetization       =    -0.00 Bohr mag/cell
     absolute magnetization    =     0.05 Bohr mag/cell

     iteration # 80     ecut=    90.00 Ry     beta= 0.20
     Davidson diagonalization with overlap
     ethr =  9.09E-10,  avg # of iterations =  1.0

     negative rho (up, down):  1.600E-03 1.600E-03

     total cpu time spent up to now is     2054.9 secs

     total energy              =   -2074.51610856 Ry
     estimated scf accuracy    <       0.00000222 Ry

     total magnetization       =    -0.00 Bohr mag/cell
     absolute magnetization    =     0.05 Bohr mag/cell

     iteration # 81     ecut=    90.00 Ry     beta= 0.20
     Davidson diagonalization with overlap
     ethr =  9.09E-10,  avg # of iterations =  2.1

     negative rho (up, down):  1.600E-03 1.600E-03

     total cpu time spent up to now is     2082.6 secs

     total energy              =   -2074.51610853 Ry
     estimated scf accuracy    <       0.00001961 Ry

     total magnetization       =    -0.00 Bohr mag/cell
     absolute magnetization    =     0.05 Bohr mag/cell

     iteration # 82     ecut=    90.00 Ry     beta= 0.20
     Davidson diagonalization with overlap
     ethr =  9.09E-10,  avg # of iterations =  1.0

     negative rho (up, down):  1.600E-03 1.600E-03

     total cpu time spent up to now is     2106.4 secs

     total energy              =   -2074.51610599 Ry
     estimated scf accuracy    <       0.00000207 Ry

     total magnetization       =    -0.00 Bohr mag/cell
     absolute magnetization    =     0.05 Bohr mag/cell

     iteration # 83     ecut=    90.00 Ry     beta= 0.20
     Davidson diagonalization with overlap
     ethr =  9.09E-10,  avg # of iterations =  2.7

     negative rho (up, down):  1.600E-03 1.600E-03

     total cpu time spent up to now is     2135.5 secs

     total energy              =   -2074.51610529 Ry
     estimated scf accuracy    <       0.00000787 Ry

     total magnetization       =    -0.00 Bohr mag/cell
     absolute magnetization    =     0.03 Bohr mag/cell

     iteration # 84     ecut=    90.00 Ry     beta= 0.20
     Davidson diagonalization with overlap
     ethr =  9.09E-10,  avg # of iterations =  2.7

     negative rho (up, down):  1.600E-03 1.600E-03

     total cpu time spent up to now is     2164.5 secs

     total energy              =   -2074.51610523 Ry
     estimated scf accuracy    <       0.00001605 Ry

     total magnetization       =    -0.00 Bohr mag/cell
     absolute magnetization    =     0.02 Bohr mag/cell

     iteration # 85     ecut=    90.00 Ry     beta= 0.20
     Davidson diagonalization with overlap
     ethr =  9.09E-10,  avg # of iterations =  3.2

     negative rho (up, down):  1.600E-03 1.600E-03

     total cpu time spent up to now is     2195.9 secs

     total energy              =   -2074.51610720 Ry
     estimated scf accuracy    <       0.00001055 Ry

     total magnetization       =    -0.00 Bohr mag/cell
     absolute magnetization    =     0.05 Bohr mag/cell

     iteration # 86     ecut=    90.00 Ry     beta= 0.20
     Davidson diagonalization with overlap
     ethr =  9.09E-10,  avg # of iterations =  2.4

     negative rho (up, down):  1.600E-03 1.600E-03

     total cpu time spent up to now is     2224.5 secs

     total energy              =   -2074.51610206 Ry
     estimated scf accuracy    <       0.00000779 Ry

     total magnetization       =    -0.00 Bohr mag/cell
     absolute magnetization    =     0.04 Bohr mag/cell

     iteration # 87     ecut=    90.00 Ry     beta= 0.20
     Davidson diagonalization with overlap
     ethr =  9.09E-10,  avg # of iterations =  4.0

     negative rho (up, down):  1.600E-03 1.600E-03

     total cpu time spent up to now is     2258.7 secs

     total energy              =   -2074.51610477 Ry
     estimated scf accuracy    <       0.00000324 Ry

     total magnetization       =    -0.00 Bohr mag/cell
     absolute magnetization    =     0.01 Bohr mag/cell

     iteration # 88     ecut=    90.00 Ry     beta= 0.20
     Davidson diagonalization with overlap
     ethr =  9.09E-10,  avg # of iterations =  3.6

     negative rho (up, down):  1.600E-03 1.600E-03

     total cpu time spent up to now is     2289.9 secs

     total energy              =   -2074.51610521 Ry
     estimated scf accuracy    <       0.00000453 Ry

     total magnetization       =    -0.00 Bohr mag/cell
     absolute magnetization    =     0.03 Bohr mag/cell

     iteration # 89     ecut=    90.00 Ry     beta= 0.20
     Davidson diagonalization with overlap
     ethr =  9.09E-10,  avg # of iterations =  2.4

     negative rho (up, down):  1.600E-03 1.600E-03

     total cpu time spent up to now is     2316.9 secs

     total energy              =   -2074.51610593 Ry
     estimated scf accuracy    <       0.00000188 Ry

     total magnetization       =    -0.00 Bohr mag/cell
     absolute magnetization    =     0.01 Bohr mag/cell

     iteration # 90     ecut=    90.00 Ry     beta= 0.20
     Davidson diagonalization with overlap
     ethr =  9.09E-10,  avg # of iterations =  1.1

     negative rho (up, down):  1.600E-03 1.600E-03

     total cpu time spent up to now is     2340.9 secs

     total energy              =   -2074.51610595 Ry
     estimated scf accuracy    <       0.00000100 Ry

     total magnetization       =    -0.00 Bohr mag/cell
     absolute magnetization    =     0.01 Bohr mag/cell

     iteration # 91     ecut=    90.00 Ry     beta= 0.20
     Davidson diagonalization with overlap
     ethr =  7.78E-10,  avg # of iterations =  1.1

     negative rho (up, down):  1.600E-03 1.600E-03

     total cpu time spent up to now is     2364.9 secs

     total energy              =   -2074.51610578 Ry
     estimated scf accuracy    <       0.00000246 Ry

     total magnetization       =    -0.00 Bohr mag/cell
     absolute magnetization    =     0.01 Bohr mag/cell

     iteration # 92     ecut=    90.00 Ry     beta= 0.20
     Davidson diagonalization with overlap
     ethr =  7.78E-10,  avg # of iterations =  1.1

     negative rho (up, down):  1.600E-03 1.600E-03

     total cpu time spent up to now is     2388.9 secs

     total energy              =   -2074.51610585 Ry
     estimated scf accuracy    <       0.00000158 Ry

     total magnetization       =    -0.00 Bohr mag/cell
     absolute magnetization    =     0.01 Bohr mag/cell

     iteration # 93     ecut=    90.00 Ry     beta= 0.20
     Davidson diagonalization with overlap
     ethr =  7.78E-10,  avg # of iterations =  1.0

     negative rho (up, down):  1.600E-03 1.600E-03

     total cpu time spent up to now is     2412.6 secs

     total energy              =   -2074.51610592 Ry
     estimated scf accuracy    <       0.00000056 Ry

     total magnetization       =    -0.00 Bohr mag/cell
     absolute magnetization    =     0.01 Bohr mag/cell

     iteration # 94     ecut=    90.00 Ry     beta= 0.20
     Davidson diagonalization with overlap
     ethr =  4.39E-10,  avg # of iterations =  1.1

     negative rho (up, down):  1.600E-03 1.600E-03

     total cpu time spent up to now is     2436.6 secs

     total energy              =   -2074.51610592 Ry
     estimated scf accuracy    <       0.00000229 Ry

     total magnetization       =    -0.00 Bohr mag/cell
     absolute magnetization    =     0.01 Bohr mag/cell

     iteration # 95     ecut=    90.00 Ry     beta= 0.20
     Davidson diagonalization with overlap
     ethr =  4.39E-10,  avg # of iterations =  1.0

     negative rho (up, down):  1.600E-03 1.600E-03

     total cpu time spent up to now is     2460.3 secs

     total energy              =   -2074.51610595 Ry
     estimated scf accuracy    <       0.00000069 Ry

     total magnetization       =    -0.00 Bohr mag/cell
     absolute magnetization    =     0.01 Bohr mag/cell

     iteration # 96     ecut=    90.00 Ry     beta= 0.20
     Davidson diagonalization with overlap
     ethr =  4.39E-10,  avg # of iterations =  1.0

     negative rho (up, down):  1.600E-03 1.600E-03

     total cpu time spent up to now is     2484.1 secs

     total energy              =   -2074.51610596 Ry
     estimated scf accuracy    <       0.00000066 Ry

     total magnetization       =    -0.00 Bohr mag/cell
     absolute magnetization    =     0.01 Bohr mag/cell

     iteration # 97     ecut=    90.00 Ry     beta= 0.20
     Davidson diagonalization with overlap
     ethr =  4.39E-10,  avg # of iterations =  1.0

     negative rho (up, down):  1.600E-03 1.600E-03

     total cpu time spent up to now is     2507.8 secs

     total energy              =   -2074.51610600 Ry
     estimated scf accuracy    <       0.00000014 Ry

     total magnetization       =    -0.00 Bohr mag/cell
     absolute magnetization    =     0.01 Bohr mag/cell

     iteration # 98     ecut=    90.00 Ry     beta= 0.20
     Davidson diagonalization with overlap
     ethr =  1.12E-10,  avg # of iterations =  1.0

     negative rho (up, down):  1.600E-03 1.600E-03

     total cpu time spent up to now is     2531.5 secs

     total energy              =   -2074.51610601 Ry
     estimated scf accuracy    <       0.00000024 Ry

     total magnetization       =    -0.00 Bohr mag/cell
     absolute magnetization    =     0.01 Bohr mag/cell

     iteration # 99     ecut=    90.00 Ry     beta= 0.20
     Davidson diagonalization with overlap
     ethr =  1.12E-10,  avg # of iterations =  1.1

     negative rho (up, down):  1.600E-03 1.600E-03

     total cpu time spent up to now is     2555.4 secs

     total energy              =   -2074.51610602 Ry
     estimated scf accuracy    <       0.00000048 Ry

     total magnetization       =    -0.00 Bohr mag/cell
     absolute magnetization    =     0.01 Bohr mag/cell

     iteration #100     ecut=    90.00 Ry     beta= 0.20
     Davidson diagonalization with overlap
     ethr =  1.12E-10,  avg # of iterations =  1.0

     negative rho (up, down):  1.600E-03 1.600E-03

     total cpu time spent up to now is     2579.1 secs

     total energy              =   -2074.51610603 Ry
     estimated scf accuracy    <       0.00000021 Ry

     total magnetization       =    -0.00 Bohr mag/cell
     absolute magnetization    =     0.01 Bohr mag/cell

     iteration #101     ecut=    90.00 Ry     beta= 0.20
     Davidson diagonalization with overlap
     ethr =  1.12E-10,  avg # of iterations =  1.0

     negative rho (up, down):  1.600E-03 1.600E-03

     total cpu time spent up to now is     2602.8 secs

     total energy              =   -2074.51610603 Ry
     estimated scf accuracy    <       0.00000021 Ry

     total magnetization       =    -0.00 Bohr mag/cell
     absolute magnetization    =     0.01 Bohr mag/cell

     iteration #102     ecut=    90.00 Ry     beta= 0.20
     Davidson diagonalization with overlap
     ethr =  1.12E-10,  avg # of iterations =  1.0

     negative rho (up, down):  1.600E-03 1.600E-03

     total cpu time spent up to now is     2626.5 secs

     total energy              =   -2074.51610606 Ry
     estimated scf accuracy    <       0.00000018 Ry

     total magnetization       =    -0.00 Bohr mag/cell
     absolute magnetization    =     0.01 Bohr mag/cell

     iteration #103     ecut=    90.00 Ry     beta= 0.20
     Davidson diagonalization with overlap
     ethr =  1.12E-10,  avg # of iterations =  1.2

     negative rho (up, down):  1.600E-03 1.600E-03

     total cpu time spent up to now is     2651.0 secs

     total energy              =   -2074.51610608 Ry
     estimated scf accuracy    <       0.00000066 Ry

     total magnetization       =    -0.00 Bohr mag/cell
     absolute magnetization    =     0.01 Bohr mag/cell

     iteration #104     ecut=    90.00 Ry     beta= 0.20
     Davidson diagonalization with overlap
     ethr =  1.12E-10,  avg # of iterations =  1.0

     negative rho (up, down):  1.600E-03 1.600E-03

     total cpu time spent up to now is     2674.7 secs

     total energy              =   -2074.51610610 Ry
     estimated scf accuracy    <       0.00000036 Ry

     total magnetization       =    -0.00 Bohr mag/cell
     absolute magnetization    =     0.02 Bohr mag/cell

     iteration #105     ecut=    90.00 Ry     beta= 0.20
     Davidson diagonalization with overlap
     ethr =  1.12E-10,  avg # of iterations =  1.0

     negative rho (up, down):  1.600E-03 1.600E-03

     total cpu time spent up to now is     2698.4 secs

     total energy              =   -2074.51610606 Ry
     estimated scf accuracy    <       0.00000022 Ry

     total magnetization       =    -0.00 Bohr mag/cell
     absolute magnetization    =     0.02 Bohr mag/cell

     iteration #106     ecut=    90.00 Ry     beta= 0.20
     Davidson diagonalization with overlap
     ethr =  1.12E-10,  avg # of iterations =  1.0

     negative rho (up, down):  1.600E-03 1.600E-03

     total cpu time spent up to now is     2722.1 secs

     total energy              =   -2074.51610571 Ry
     estimated scf accuracy    <       0.00000045 Ry

     total magnetization       =    -0.00 Bohr mag/cell
     absolute magnetization    =     0.01 Bohr mag/cell

     iteration #107     ecut=    90.00 Ry     beta= 0.20
     Davidson diagonalization with overlap
     ethr =  1.12E-10,  avg # of iterations =  3.0

     negative rho (up, down):  1.600E-03 1.600E-03

     total cpu time spent up to now is     2751.9 secs

     total energy              =   -2074.51610583 Ry
     estimated scf accuracy    <       0.00000084 Ry

     total magnetization       =    -0.00 Bohr mag/cell
     absolute magnetization    =     0.01 Bohr mag/cell

     iteration #108     ecut=    90.00 Ry     beta= 0.20
     Davidson diagonalization with overlap
     ethr =  1.12E-10,  avg # of iterations =  3.3

     negative rho (up, down):  1.600E-03 1.600E-03

     total cpu time spent up to now is     2783.6 secs

     total energy              =   -2074.51610588 Ry
     estimated scf accuracy    <       0.00000057 Ry

     total magnetization       =    -0.00 Bohr mag/cell
     absolute magnetization    =     0.02 Bohr mag/cell

     iteration #109     ecut=    90.00 Ry     beta= 0.20
     Davidson diagonalization with overlap
     ethr =  1.12E-10,  avg # of iterations =  2.1

     negative rho (up, down):  1.600E-03 1.600E-03

     total cpu time spent up to now is     2810.4 secs

     total energy              =   -2074.51610592 Ry
     estimated scf accuracy    <       0.00000076 Ry

     total magnetization       =    -0.00 Bohr mag/cell
     absolute magnetization    =     0.01 Bohr mag/cell

     iteration #110     ecut=    90.00 Ry     beta= 0.20
     Davidson diagonalization with overlap
     ethr =  1.12E-10,  avg # of iterations =  1.8

     negative rho (up, down):  1.600E-03 1.600E-03

     total cpu time spent up to now is     2836.6 secs

     total energy              =   -2074.51610597 Ry
     estimated scf accuracy    <       0.00000060 Ry

     total magnetization       =    -0.00 Bohr mag/cell
     absolute magnetization    =     0.01 Bohr mag/cell

     iteration #111     ecut=    90.00 Ry     beta= 0.20
     Davidson diagonalization with overlap
     ethr =  1.12E-10,  avg # of iterations =  1.3

     negative rho (up, down):  1.600E-03 1.600E-03

     total cpu time spent up to now is     2861.2 secs

     total energy              =   -2074.51610598 Ry
     estimated scf accuracy    <       0.00000041 Ry

     total magnetization       =    -0.00 Bohr mag/cell
     absolute magnetization    =     0.01 Bohr mag/cell

     iteration #112     ecut=    90.00 Ry     beta= 0.20
     Davidson diagonalization with overlap
     ethr =  1.12E-10,  avg # of iterations =  1.0

     negative rho (up, down):  1.600E-03 1.600E-03

     total cpu time spent up to now is     2884.9 secs

     total energy              =   -2074.51610589 Ry
     estimated scf accuracy    <       0.00000029 Ry

     total magnetization       =    -0.00 Bohr mag/cell
     absolute magnetization    =     0.01 Bohr mag/cell

     iteration #113     ecut=    90.00 Ry     beta= 0.20
     Davidson diagonalization with overlap
     ethr =  1.12E-10,  avg # of iterations =  1.4

     negative rho (up, down):  1.600E-03 1.600E-03

     total cpu time spent up to now is     2909.9 secs

     total energy              =   -2074.51610594 Ry
     estimated scf accuracy    <       0.00000029 Ry

     total magnetization       =    -0.00 Bohr mag/cell
     absolute magnetization    =     0.01 Bohr mag/cell

     iteration #114     ecut=    90.00 Ry     beta= 0.20
     Davidson diagonalization with overlap
     ethr =  1.12E-10,  avg # of iterations =  2.0

     negative rho (up, down):  1.600E-03 1.600E-03

     total cpu time spent up to now is     2937.8 secs

     total energy              =   -2074.51610597 Ry
     estimated scf accuracy    <       0.00000100 Ry

     total magnetization       =    -0.00 Bohr mag/cell
     absolute magnetization    =     0.01 Bohr mag/cell

     iteration #115     ecut=    90.00 Ry     beta= 0.20
     Davidson diagonalization with overlap
     ethr =  1.12E-10,  avg # of iterations =  1.0

     negative rho (up, down):  1.600E-03 1.600E-03

     total cpu time spent up to now is     2961.5 secs

     total energy              =   -2074.51610598 Ry
     estimated scf accuracy    <       0.00000028 Ry

     total magnetization       =    -0.00 Bohr mag/cell
     absolute magnetization    =     0.01 Bohr mag/cell

     iteration #116     ecut=    90.00 Ry     beta= 0.20
     Davidson diagonalization with overlap
     ethr =  1.12E-10,  avg # of iterations =  1.0

     negative rho (up, down):  1.600E-03 1.600E-03

     total cpu time spent up to now is     2985.2 secs

     total energy              =   -2074.51610599 Ry
     estimated scf accuracy    <       0.00000029 Ry

     total magnetization       =    -0.00 Bohr mag/cell
     absolute magnetization    =     0.01 Bohr mag/cell

     iteration #117     ecut=    90.00 Ry     beta= 0.20
     Davidson diagonalization with overlap
     ethr =  1.12E-10,  avg # of iterations =  1.0

     negative rho (up, down):  1.600E-03 1.600E-03

     total cpu time spent up to now is     3008.9 secs

     total energy              =   -2074.51610599 Ry
     estimated scf accuracy    <       0.00000045 Ry

     total magnetization       =    -0.00 Bohr mag/cell
     absolute magnetization    =     0.01 Bohr mag/cell

     iteration #118     ecut=    90.00 Ry     beta= 0.20
     Davidson diagonalization with overlap
     ethr =  1.12E-10,  avg # of iterations =  1.0

     negative rho (up, down):  1.600E-03 1.600E-03

     total cpu time spent up to now is     3032.6 secs

     total energy              =   -2074.51610602 Ry
     estimated scf accuracy    <       0.00000024 Ry

     total magnetization       =    -0.00 Bohr mag/cell
     absolute magnetization    =     0.01 Bohr mag/cell

     iteration #119     ecut=    90.00 Ry     beta= 0.20
     Davidson diagonalization with overlap
     ethr =  1.12E-10,  avg # of iterations =  1.9

     negative rho (up, down):  1.600E-03 1.600E-03

     total cpu time spent up to now is     3059.0 secs

     total energy              =   -2074.51610601 Ry
     estimated scf accuracy    <       0.00000164 Ry

     total magnetization       =    -0.00 Bohr mag/cell
     absolute magnetization    =     0.01 Bohr mag/cell

     iteration #120     ecut=    90.00 Ry     beta= 0.20
     Davidson diagonalization with overlap
     ethr =  1.12E-10,  avg # of iterations =  1.0

     negative rho (up, down):  1.600E-03 1.600E-03

     total cpu time spent up to now is     3083.2 secs

     total energy              =   -2074.51610605 Ry
     estimated scf accuracy    <       0.00000020 Ry

     total magnetization       =    -0.00 Bohr mag/cell
     absolute magnetization    =     0.01 Bohr mag/cell

     iteration #121     ecut=    90.00 Ry     beta= 0.20
     Davidson diagonalization with overlap
     ethr =  1.12E-10,  avg # of iterations =  1.0

     negative rho (up, down):  1.600E-03 1.600E-03

     total cpu time spent up to now is     3106.9 secs

     total energy              =   -2074.51610605 Ry
     estimated scf accuracy    <       0.00000028 Ry

     total magnetization       =    -0.00 Bohr mag/cell
     absolute magnetization    =     0.01 Bohr mag/cell

     iteration #122     ecut=    90.00 Ry     beta= 0.20
     Davidson diagonalization with overlap
     ethr =  1.12E-10,  avg # of iterations =  1.0

     negative rho (up, down):  1.600E-03 1.600E-03

     total cpu time spent up to now is     3130.6 secs

     total energy              =   -2074.51610605 Ry
     estimated scf accuracy    <       0.00000029 Ry

     total magnetization       =    -0.00 Bohr mag/cell
     absolute magnetization    =     0.01 Bohr mag/cell

     iteration #123     ecut=    90.00 Ry     beta= 0.20
     Davidson diagonalization with overlap
     ethr =  1.12E-10,  avg # of iterations =  1.0

     negative rho (up, down):  1.600E-03 1.600E-03

     total cpu time spent up to now is     3154.0 secs

     total energy              =   -2074.51610608 Ry
     estimated scf accuracy    <       0.00000059 Ry

     total magnetization       =    -0.00 Bohr mag/cell
     absolute magnetization    =     0.01 Bohr mag/cell

     iteration #124     ecut=    90.00 Ry     beta= 0.20
     Davidson diagonalization with overlap
     ethr =  1.12E-10,  avg # of iterations =  1.5

     negative rho (up, down):  1.600E-03 1.600E-03

     total cpu time spent up to now is     3178.9 secs

     total energy              =   -2074.51610609 Ry
     estimated scf accuracy    <       0.00000127 Ry

     total magnetization       =    -0.00 Bohr mag/cell
     absolute magnetization    =     0.02 Bohr mag/cell

     iteration #125     ecut=    90.00 Ry     beta= 0.20
     Davidson diagonalization with overlap
     ethr =  1.12E-10,  avg # of iterations =  1.0

     negative rho (up, down):  1.600E-03 1.600E-03

     total cpu time spent up to now is     3202.2 secs

     total energy              =   -2074.51610615 Ry
     estimated scf accuracy    <       0.00000021 Ry

     total magnetization       =    -0.00 Bohr mag/cell
     absolute magnetization    =     0.02 Bohr mag/cell

     iteration #126     ecut=    90.00 Ry     beta= 0.20
     Davidson diagonalization with overlap
     ethr =  1.12E-10,  avg # of iterations =  1.1

     negative rho (up, down):  1.600E-03 1.600E-03

     total cpu time spent up to now is     3225.9 secs

     total energy              =   -2074.51610614 Ry
     estimated scf accuracy    <       0.00000071 Ry

     total magnetization       =    -0.00 Bohr mag/cell
     absolute magnetization    =     0.02 Bohr mag/cell

     iteration #127     ecut=    90.00 Ry     beta= 0.20
     Davidson diagonalization with overlap
     ethr =  1.12E-10,  avg # of iterations =  1.0

     negative rho (up, down):  1.600E-03 1.600E-03

     total cpu time spent up to now is     3249.3 secs

     total energy              =   -2074.51610618 Ry
     estimated scf accuracy    <       0.00000037 Ry

     total magnetization       =    -0.00 Bohr mag/cell
     absolute magnetization    =     0.02 Bohr mag/cell

     iteration #128     ecut=    90.00 Ry     beta= 0.20
     Davidson diagonalization with overlap
     ethr =  1.12E-10,  avg # of iterations =  1.2

     negative rho (up, down):  1.600E-03 1.600E-03

     total cpu time spent up to now is     3273.3 secs

     total energy              =   -2074.51610619 Ry
     estimated scf accuracy    <       0.00000067 Ry

     total magnetization       =    -0.00 Bohr mag/cell
     absolute magnetization    =     0.02 Bohr mag/cell

     iteration #129     ecut=    90.00 Ry     beta= 0.20
     Davidson diagonalization with overlap
     ethr =  1.12E-10,  avg # of iterations =  1.0

     negative rho (up, down):  1.600E-03 1.600E-03

     total cpu time spent up to now is     3296.6 secs

     total energy              =   -2074.51610621 Ry
     estimated scf accuracy    <       0.00000031 Ry

     total magnetization       =    -0.00 Bohr mag/cell
     absolute magnetization    =     0.02 Bohr mag/cell

     iteration #130     ecut=    90.00 Ry     beta= 0.20
     Davidson diagonalization with overlap
     ethr =  1.12E-10,  avg # of iterations =  1.0

     negative rho (up, down):  1.600E-03 1.600E-03

     total cpu time spent up to now is     3320.0 secs

     total energy              =   -2074.51610625 Ry
     estimated scf accuracy    <       0.00000058 Ry

     total magnetization       =    -0.00 Bohr mag/cell
     absolute magnetization    =     0.02 Bohr mag/cell

     iteration #131     ecut=    90.00 Ry     beta= 0.20
     Davidson diagonalization with overlap
     ethr =  1.12E-10,  avg # of iterations =  1.4

     negative rho (up, down):  1.600E-03 1.600E-03

     total cpu time spent up to now is     3344.7 secs

     total energy              =   -2074.51610627 Ry
     estimated scf accuracy    <       0.00000097 Ry

     total magnetization       =    -0.00 Bohr mag/cell
     absolute magnetization    =     0.02 Bohr mag/cell

     iteration #132     ecut=    90.00 Ry     beta= 0.20
     Davidson diagonalization with overlap
     ethr =  1.12E-10,  avg # of iterations =  1.0

     negative rho (up, down):  1.600E-03 1.600E-03

     total cpu time spent up to now is     3368.0 secs

     total energy              =   -2074.51610631 Ry
     estimated scf accuracy    <       0.00000042 Ry

     total magnetization       =    -0.00 Bohr mag/cell
     absolute magnetization    =     0.02 Bohr mag/cell

     iteration #133     ecut=    90.00 Ry     beta= 0.20
     Davidson diagonalization with overlap
     ethr =  1.12E-10,  avg # of iterations =  1.0

     negative rho (up, down):  1.600E-03 1.600E-03

     total cpu time spent up to now is     3391.4 secs

     total energy              =   -2074.51610631 Ry
     estimated scf accuracy    <       0.00000079 Ry

     total magnetization       =    -0.00 Bohr mag/cell
     absolute magnetization    =     0.02 Bohr mag/cell

     iteration #134     ecut=    90.00 Ry     beta= 0.20
     Davidson diagonalization with overlap
     ethr =  1.12E-10,  avg # of iterations =  1.0

     negative rho (up, down):  1.600E-03 1.600E-03

     total cpu time spent up to now is     3414.8 secs

     total energy              =   -2074.51610633 Ry
     estimated scf accuracy    <       0.00000056 Ry

     total magnetization       =    -0.00 Bohr mag/cell
     absolute magnetization    =     0.02 Bohr mag/cell

     iteration #135     ecut=    90.00 Ry     beta= 0.20
     Davidson diagonalization with overlap
     ethr =  1.12E-10,  avg # of iterations =  2.0

     negative rho (up, down):  1.600E-03 1.600E-03

     total cpu time spent up to now is     3441.6 secs

     total energy              =   -2074.51610635 Ry
     estimated scf accuracy    <       0.00000209 Ry

     total magnetization       =    -0.00 Bohr mag/cell
     absolute magnetization    =     0.02 Bohr mag/cell

     iteration #136     ecut=    90.00 Ry     beta= 0.20
     Davidson diagonalization with overlap
     ethr =  1.12E-10,  avg # of iterations =  2.0

     negative rho (up, down):  1.600E-03 1.600E-03

     total cpu time spent up to now is     3469.5 secs

     total energy              =   -2074.51610639 Ry
     estimated scf accuracy    <       0.00000195 Ry

     total magnetization       =    -0.00 Bohr mag/cell
     absolute magnetization    =     0.02 Bohr mag/cell

     iteration #137     ecut=    90.00 Ry     beta= 0.20
     Davidson diagonalization with overlap
     ethr =  1.12E-10,  avg # of iterations =  1.0

     negative rho (up, down):  1.600E-03 1.600E-03

     total cpu time spent up to now is     3492.9 secs

     total energy              =   -2074.51610639 Ry
     estimated scf accuracy    <       0.00000044 Ry

     total magnetization       =    -0.00 Bohr mag/cell
     absolute magnetization    =     0.02 Bohr mag/cell

     iteration #138     ecut=    90.00 Ry     beta= 0.20
     Davidson diagonalization with overlap
     ethr =  1.12E-10,  avg # of iterations =  1.8

     negative rho (up, down):  1.600E-03 1.600E-03

     total cpu time spent up to now is     3518.9 secs

     total energy              =   -2074.51610626 Ry
     estimated scf accuracy    <       0.00000138 Ry

     total magnetization       =    -0.00 Bohr mag/cell
     absolute magnetization    =     0.02 Bohr mag/cell

     iteration #139     ecut=    90.00 Ry     beta= 0.20
     Davidson diagonalization with overlap
     ethr =  1.12E-10,  avg # of iterations =  1.7

     negative rho (up, down):  1.600E-03 1.600E-03

     total cpu time spent up to now is     3544.8 secs

     total energy              =   -2074.51610646 Ry
     estimated scf accuracy    <       0.00000095 Ry

     total magnetization       =    -0.00 Bohr mag/cell
     absolute magnetization    =     0.02 Bohr mag/cell

     iteration #140     ecut=    90.00 Ry     beta= 0.20
     Davidson diagonalization with overlap
     ethr =  1.12E-10,  avg # of iterations =  2.8

     negative rho (up, down):  1.600E-03 1.600E-03

     total cpu time spent up to now is     3574.1 secs

     total energy              =   -2074.51610657 Ry
     estimated scf accuracy    <       0.00000224 Ry

     total magnetization       =    -0.00 Bohr mag/cell
     absolute magnetization    =     0.03 Bohr mag/cell

     iteration #141     ecut=    90.00 Ry     beta= 0.20
     Davidson diagonalization with overlap
     ethr =  1.12E-10,  avg # of iterations =  1.3

     negative rho (up, down):  1.600E-03 1.600E-03

     total cpu time spent up to now is     3598.2 secs

     total energy              =   -2074.51610660 Ry
     estimated scf accuracy    <       0.00000068 Ry

     total magnetization       =    -0.00 Bohr mag/cell
     absolute magnetization    =     0.03 Bohr mag/cell

     iteration #142     ecut=    90.00 Ry     beta= 0.20
     Davidson diagonalization with overlap
     ethr =  1.12E-10,  avg # of iterations =  1.0

     negative rho (up, down):  1.600E-03 1.600E-03

     total cpu time spent up to now is     3621.6 secs

     total energy              =   -2074.51610662 Ry
     estimated scf accuracy    <       0.00000089 Ry

     total magnetization       =    -0.00 Bohr mag/cell
     absolute magnetization    =     0.03 Bohr mag/cell

     iteration #143     ecut=    90.00 Ry     beta= 0.20
     Davidson diagonalization with overlap
     ethr =  1.12E-10,  avg # of iterations =  1.0

     negative rho (up, down):  1.600E-03 1.600E-03

     total cpu time spent up to now is     3645.1 secs

     total energy              =   -2074.51610664 Ry
     estimated scf accuracy    <       0.00000073 Ry

     total magnetization       =    -0.00 Bohr mag/cell
     absolute magnetization    =     0.03 Bohr mag/cell

     iteration #144     ecut=    90.00 Ry     beta= 0.20
     Davidson diagonalization with overlap
     ethr =  1.12E-10,  avg # of iterations =  1.0

[...]
     ethr =  4.47E-09,  avg # of iterations =  1.0

     negative rho (up, down):  7.472E-03 7.554E-03

     total cpu time spent up to now is   125520.2 secs

     total energy              =   -2074.72488450 Ry
     estimated scf accuracy    <       0.00000173 Ry

     total magnetization       =     0.06 Bohr mag/cell
     absolute magnetization    =    12.96 Bohr mag/cell

     iteration # 17     ecut=    90.00 Ry     beta= 0.20
     Davidson diagonalization with overlap
     ethr =  1.35E-09,  avg # of iterations =  1.0

     negative rho (up, down):  7.470E-03 7.552E-03

     total cpu time spent up to now is   125544.2 secs

     total energy              =   -2074.72488475 Ry
     estimated scf accuracy    <       0.00000192 Ry

     total magnetization       =     0.06 Bohr mag/cell
     absolute magnetization    =    12.96 Bohr mag/cell

     iteration # 18     ecut=    90.00 Ry     beta= 0.20
     Davidson diagonalization with overlap
     ethr =  1.35E-09,  avg # of iterations =  1.0

     negative rho (up, down):  7.467E-03 7.549E-03

     total cpu time spent up to now is   125568.0 secs

     total energy              =   -2074.72488501 Ry
     estimated scf accuracy    <       0.00000174 Ry

     total magnetization       =     0.06 Bohr mag/cell
     absolute magnetization    =    12.96 Bohr mag/cell

     iteration # 19     ecut=    90.00 Ry     beta= 0.20
     Davidson diagonalization with overlap
     ethr =  1.35E-09,  avg # of iterations =  1.0

     negative rho (up, down):  7.466E-03 7.548E-03

     total cpu time spent up to now is   125591.8 secs

     total energy              =   -2074.72488515 Ry
     estimated scf accuracy    <       0.00000225 Ry

     total magnetization       =     0.06 Bohr mag/cell
     absolute magnetization    =    12.96 Bohr mag/cell

     iteration # 20     ecut=    90.00 Ry     beta= 0.20
     Davidson diagonalization with overlap
     ethr =  1.35E-09,  avg # of iterations =  1.0

     negative rho (up, down):  7.457E-03 7.537E-03

     total cpu time spent up to now is   125615.7 secs

     total energy              =   -2074.72488565 Ry
     estimated scf accuracy    <       0.00000196 Ry

     total magnetization       =     0.06 Bohr mag/cell
     absolute magnetization    =    12.95 Bohr mag/cell

     iteration # 21     ecut=    90.00 Ry     beta= 0.20
     Davidson diagonalization with overlap
     ethr =  1.35E-09,  avg # of iterations =  1.7

     negative rho (up, down):  7.461E-03 7.542E-03

     total cpu time spent up to now is   125641.8 secs

     total energy              =   -2074.72488557 Ry
     estimated scf accuracy    <       0.00000082 Ry

     total magnetization       =     0.06 Bohr mag/cell
     absolute magnetization    =    12.95 Bohr mag/cell

     iteration # 22     ecut=    90.00 Ry     beta= 0.20
     Davidson diagonalization with overlap
     ethr =  6.44E-10,  avg # of iterations =  2.0

     negative rho (up, down):  7.457E-03 7.537E-03

     total cpu time spent up to now is   125669.3 secs

     total energy              =   -2074.72488579 Ry
     estimated scf accuracy    <       0.00000211 Ry

     total magnetization       =     0.06 Bohr mag/cell
     absolute magnetization    =    12.95 Bohr mag/cell

     iteration # 23     ecut=    90.00 Ry     beta= 0.20
     Davidson diagonalization with overlap
     ethr =  6.44E-10,  avg # of iterations =  1.0

     negative rho (up, down):  7.456E-03 7.536E-03

     total cpu time spent up to now is   125693.2 secs

     total energy              =   -2074.72488590 Ry
     estimated scf accuracy    <       0.00000065 Ry

     total magnetization       =     0.06 Bohr mag/cell
     absolute magnetization    =    12.95 Bohr mag/cell

     iteration # 24     ecut=    90.00 Ry     beta= 0.20
     Davidson diagonalization with overlap
     ethr =  5.11E-10,  avg # of iterations =  1.0

     negative rho (up, down):  7.456E-03 7.536E-03

     total cpu time spent up to now is   125717.1 secs

     total energy              =   -2074.72488593 Ry
     estimated scf accuracy    <       0.00000023 Ry

     total magnetization       =     0.06 Bohr mag/cell
     absolute magnetization    =    12.95 Bohr mag/cell

     iteration # 25     ecut=    90.00 Ry     beta= 0.20
     Davidson diagonalization with overlap
     ethr =  1.77E-10,  avg # of iterations =  1.0

     negative rho (up, down):  7.456E-03 7.536E-03

     total cpu time spent up to now is   125741.1 secs

     total energy              =   -2074.72488593 Ry
     estimated scf accuracy    <       0.00000020 Ry

     total magnetization       =     0.06 Bohr mag/cell
     absolute magnetization    =    12.95 Bohr mag/cell

     iteration # 26     ecut=    90.00 Ry     beta= 0.20
     Davidson diagonalization with overlap
     ethr =  1.54E-10,  avg # of iterations =  1.0

     negative rho (up, down):  7.456E-03 7.535E-03

     total cpu time spent up to now is   125764.9 secs

     total energy              =   -2074.72488596 Ry
     estimated scf accuracy    <       0.00000011 Ry

     total magnetization       =     0.06 Bohr mag/cell
     absolute magnetization    =    12.95 Bohr mag/cell

     iteration # 27     ecut=    90.00 Ry     beta= 0.20
     Davidson diagonalization with overlap
     ethr =  8.22E-11,  avg # of iterations =  1.0

     negative rho (up, down):  7.455E-03 7.534E-03

     total cpu time spent up to now is   125788.9 secs

     total energy              =   -2074.72488599 Ry
     estimated scf accuracy    <       0.00000005 Ry

     total magnetization       =     0.06 Bohr mag/cell
     absolute magnetization    =    12.95 Bohr mag/cell

     iteration # 28     ecut=    90.00 Ry     beta= 0.20
     Davidson diagonalization with overlap
     ethr =  3.86E-11,  avg # of iterations =  2.1

     negative rho (up, down):  7.455E-03 7.534E-03

     total cpu time spent up to now is   125818.4 secs

     total energy              =   -2074.72488599 Ry
     estimated scf accuracy    <       0.00000019 Ry

     total magnetization       =     0.06 Bohr mag/cell
     absolute magnetization    =    12.95 Bohr mag/cell

     iteration # 29     ecut=    90.00 Ry     beta= 0.20
     Davidson diagonalization with overlap
     ethr =  3.86E-11,  avg # of iterations =  1.1

     negative rho (up, down):  7.455E-03 7.534E-03

     total cpu time spent up to now is   125842.6 secs

     total energy              =   -2074.72488599 Ry
     estimated scf accuracy    <       0.00000010 Ry

     total magnetization       =     0.06 Bohr mag/cell
     absolute magnetization    =    12.95 Bohr mag/cell

     iteration # 30     ecut=    90.00 Ry     beta= 0.20
     Davidson diagonalization with overlap
     ethr =  3.86E-11,  avg # of iterations =  1.0

     negative rho (up, down):  7.454E-03 7.534E-03

     total cpu time spent up to now is   125866.6 secs

     total energy              =   -2074.72488601 Ry
     estimated scf accuracy    <       0.00000006 Ry

     total magnetization       =     0.06 Bohr mag/cell
     absolute magnetization    =    12.95 Bohr mag/cell

     iteration # 31     ecut=    90.00 Ry     beta= 0.20
     Davidson diagonalization with overlap
     ethr =  3.86E-11,  avg # of iterations =  1.1

     negative rho (up, down):  7.454E-03 7.533E-03

     total cpu time spent up to now is   125890.6 secs

     total energy              =   -2074.72488601 Ry
     estimated scf accuracy    <       0.00000008 Ry

     total magnetization       =     0.06 Bohr mag/cell
     absolute magnetization    =    12.95 Bohr mag/cell

     iteration # 32     ecut=    90.00 Ry     beta= 0.20
     Davidson diagonalization with overlap
     ethr =  3.86E-11,  avg # of iterations =  1.0

     negative rho (up, down):  7.454E-03 7.533E-03

     total cpu time spent up to now is   125914.5 secs

     total energy              =   -2074.72488601 Ry
     estimated scf accuracy    <       0.00000008 Ry

     total magnetization       =     0.06 Bohr mag/cell
     absolute magnetization    =    12.95 Bohr mag/cell

     iteration # 33     ecut=    90.00 Ry     beta= 0.20
     Davidson diagonalization with overlap
     ethr =  3.86E-11,  avg # of iterations =  1.0

     negative rho (up, down):  7.454E-03 7.533E-03

     total cpu time spent up to now is   125938.4 secs

     total energy              =   -2074.72488602 Ry
     estimated scf accuracy    <       0.00000002 Ry

     total magnetization       =     0.06 Bohr mag/cell
     absolute magnetization    =    12.95 Bohr mag/cell

     iteration # 34     ecut=    90.00 Ry     beta= 0.20
     Davidson diagonalization with overlap
     ethr =  1.25E-11,  avg # of iterations =  1.1

     negative rho (up, down):  7.454E-03 7.533E-03

     total cpu time spent up to now is   125962.5 secs

     total energy              =   -2074.72488602 Ry
     estimated scf accuracy    <       0.00000002 Ry

     total magnetization       =     0.06 Bohr mag/cell
     absolute magnetization    =    12.95 Bohr mag/cell

     iteration # 35     ecut=    90.00 Ry     beta= 0.20
     Davidson diagonalization with overlap
     ethr =  1.25E-11,  avg # of iterations =  1.0

     negative rho (up, down):  7.454E-03 7.533E-03

     total cpu time spent up to now is   125986.4 secs

     total energy              =   -2074.72488602 Ry
     estimated scf accuracy    <       0.00000002 Ry

     total magnetization       =     0.06 Bohr mag/cell
     absolute magnetization    =    12.95 Bohr mag/cell

     iteration # 36     ecut=    90.00 Ry     beta= 0.20
     Davidson diagonalization with overlap
     ethr =  1.25E-11,  avg # of iterations =  1.0

     negative rho (up, down):  7.453E-03 7.532E-03

     total cpu time spent up to now is   126010.2 secs

     total energy              =   -2074.72488603 Ry
     estimated scf accuracy    <       0.00000002 Ry

     total magnetization       =     0.06 Bohr mag/cell
     absolute magnetization    =    12.95 Bohr mag/cell

     iteration # 37     ecut=    90.00 Ry     beta= 0.20
     Davidson diagonalization with overlap
     ethr =  1.25E-11,  avg # of iterations =  2.0

     negative rho (up, down):  7.453E-03 7.532E-03

     total cpu time spent up to now is   126037.7 secs

     total energy              =   -2074.72488603 Ry
     estimated scf accuracy    <       0.00000002 Ry

     total magnetization       =     0.06 Bohr mag/cell
     absolute magnetization    =    12.95 Bohr mag/cell

     iteration # 38     ecut=    90.00 Ry     beta= 0.20
     Davidson diagonalization with overlap
     ethr =  1.25E-11,  avg # of iterations =  1.2

     negative rho (up, down):  7.453E-03 7.531E-03

     Magnetic moment per site:
     atom:    1    charge:   16.3504    magn:    0.1067    constr:    0.0000
     atom:    2    charge:   11.7294    magn:   -2.6017    constr:    0.0000
     atom:    3    charge:   16.3586    magn:   -0.0282    constr:    0.0000
     atom:    4    charge:   11.7265    magn:    2.5959    constr:    0.0000
     atom:    5    charge:   16.3309    magn:   -0.0317    constr:    0.0000
     atom:    6    charge:   11.7371    magn:    2.6137    constr:    0.0000
     atom:    7    charge:   16.3654    magn:    0.0130    constr:    0.0000
     atom:    8    charge:   11.7239    magn:   -2.5951    constr:    0.0000

     total cpu time spent up to now is   126062.2 secs

     End of self-consistent calculation

     Number of k-points >= 100: set verbosity='high' to print the bands.

     the Fermi energy is    14.5069 ev

!    total energy              =   -2074.72488602 Ry
     estimated scf accuracy    <          9.9E-09 Ry
     smearing contrib. (-TS)   =      -0.00721697 Ry
     internal energy E=F+TS    =   -2074.71766905 Ry

     total magnetization       =     0.06 Bohr mag/cell
     absolute magnetization    =    12.95 Bohr mag/cell

     convergence has been achieved in  38 iterations

     negative rho (up, down):  7.453E-03 7.531E-03

     Forces acting on atoms (cartesian axes, Ry/au):

     atom    1 type  1   force =    -0.02984579    0.02026803   -0.00747859
     atom    2 type  2   force =     0.00242240    0.01365487   -0.01729065
     atom    3 type  1   force =    -0.00768859   -0.00930946    0.02916393
     atom    4 type  2   force =    -0.01909638   -0.00858013    0.00057780
     atom    5 type  1   force =     0.02660174   -0.02825194   -0.02620716
     atom    6 type  2   force =     0.00732474   -0.00936527   -0.01084179
     atom    7 type  1   force =     0.00890617    0.02076035    0.00983923
     atom    8 type  2   force =     0.01137571    0.00082354    0.02223723

     Total force =     0.083468     Total SCF correction =     0.000117


     Computing stress (Cartesian axis) and pressure


     negative rho (up, down):  7.453E-03 7.531E-03
          total   stress  (Ry/bohr**3)                   (kbar)     P=      -31.43
  -0.00028990   0.00011677   0.00006253          -42.65       17.18        9.20
   0.00011677  -0.00003966  -0.00004680           17.18       -5.83       -6.88
   0.00006253  -0.00004680  -0.00031139            9.20       -6.88      -45.81


     Entering Dynamics;  it =   102   time =  0.09772 pico-seconds

  new lattice vectors (alat unit) :
   1.034994949   0.012191978   0.001613176
   0.012191978   1.005739430  -0.001308380
   0.001613176  -0.001308380   1.040049566
  new unit-cell volume =    749.5857 (a.u.)^3
  new positions in cryst coord
Ni      -0.056480950   0.524343428   1.007028845
Cr       0.506324639   0.030046267   0.446948914
Ni       0.008348357   1.006875224   0.551279843
Cr       0.440747374   0.439207214  -0.007170809
Ni       0.552992846  -0.057171653  -0.048814998
Cr      -0.003308146   0.505475163   0.504291196
Ni       0.496203575   0.526517339   0.491578602
Cr       0.055035288   0.024634333   0.054720301
  new positions in cart coord (alat unit)
Ni      -0.050440199   0.525346669   1.046582759
Cr       0.525130775   0.035807035   0.465626503
Ni       0.021805619   1.012034613   0.572054453
Cr       0.461514542   0.447110977  -0.007321644
Ni       0.571569019  -0.050693841  -0.049803141
Cr       0.003552338   0.507676164   0.523821149
Ni       0.520780484   0.534945780   0.511377690
Cr       0.057349860   0.025375114   0.056968376

     Ekin =     0.03382482 Ry    T =  383.8 K  Etot =    -2074.69105609
     new unit-cell volume =    749.58569 a.u.^3 (   111.07714 Ang^3 )
     density =      6.61895 g/cm^3

CELL_PARAMETERS (angstrom)
   4.845535852   0.057079182   0.007552408
   0.057079182   4.708570288  -0.006125445
   0.007552408  -0.006125445   4.869200055

ATOMIC_POSITIONS (angstrom)
Ni           -0.2361458788        2.4595155007        4.8997865039
Cr            2.4585047481        0.1676377963        2.1799235994
Ni            0.1020873676        4.7380424466        2.6781873344
Cr            2.1606726325        2.0932394603       -0.0342777393
Ni            2.6759146781       -0.2373333533       -0.2331633634
Cr            0.0166309811        2.3767874979        2.4523734746
Ni            2.4381379929        2.5044556572        2.3941169326
Cr            0.2684948405        0.1187986733        0.2667088437



     Maximum number of iterations reached, stopping

     init_run     :     12.07s CPU     12.69s WALL (       1 calls)
     electrons    : 120325.52s CPU 123926.74s WALL (     102 calls)
     update_pot   :    172.75s CPU    174.86s WALL (     101 calls)
     forces       :    612.16s CPU    641.96s WALL (     102 calls)
     stress       :   1215.59s CPU   1252.59s WALL (     102 calls)

     Called by init_run:
     wfcinit      :      9.50s CPU      9.83s WALL (       1 calls)
     potinit      :      0.56s CPU      0.63s WALL (       1 calls)
     hinit0       :      1.08s CPU      1.21s WALL (       1 calls)

     Called by electrons:
     c_bands      : 103648.18s CPU 105364.96s WALL (    4141 calls)
     sum_band     :  14182.51s CPU  15343.54s WALL (    4141 calls)
     v_of_rho     :    580.52s CPU    668.85s WALL (    4242 calls)
     newd         :   1846.55s CPU   2473.25s WALL (    4242 calls)
     mix_rho      :     57.51s CPU     70.62s WALL (    4141 calls)

     Called by c_bands:
     init_us_2    :   1356.07s CPU   1389.19s WALL ( 1069362 calls)
     cegterg      :  99979.98s CPU 101591.87s WALL (  521766 calls)

     Called by *egterg:
     cdiaghg      :  14925.58s CPU  14963.88s WALL ( 1659797 calls)
     h_psi        :  43444.17s CPU  44395.14s WALL ( 1672775 calls)
     s_psi        :   7523.72s CPU   7567.50s WALL ( 1672775 calls)
     g_psi        :    170.52s CPU    172.30s WALL ( 1150883 calls)

     Called by h_psi:
     h_psi:calbec :  10000.25s CPU  10362.82s WALL ( 1672775 calls)
     vloc_psi     :  24593.34s CPU  25113.59s WALL ( 1672775 calls)
     add_vuspsi   :   8112.33s CPU   8171.55s WALL ( 1672775 calls)

     General routines
     calbec       :  13966.44s CPU  14468.64s WALL ( 2258801 calls)
     fft          :    219.41s CPU    290.87s WALL (  110029 calls)
     ffts         :      7.67s CPU      7.80s WALL (   16766 calls)
     fftw         :  27479.02s CPU  28057.64s WALL (******** calls)
     interpolate  :     23.25s CPU     30.41s WALL (    8484 calls)

     Parallel routines
     fft_scatt_xy :   2886.32s CPU   2938.91s WALL (******** calls)
     fft_scatt_yz :  10716.35s CPU  11017.37s WALL (******** calls)

     PWSCF        :   1d 9h59m CPU   1d11h 1m WALL


   This run was terminated on:  22:10:12  10Feb2022            

=------------------------------------------------------------------------------=
   JOB DONE.
=------------------------------------------------------------------------------=
Note: The following floating-point exceptions are signalling: IEEE_UNDERFLOW_FLAG IEEE_DENORMAL
Note: The following floating-point exceptions are signalling: IEEE_UNDERFLOW_FLAG IEEE_DENORMAL
Note: The following floating-point exceptions are signalling: IEEE_UNDERFLOW_FLAG IEEE_DENORMAL
Note: The following floating-point exceptions are signalling: IEEE_UNDERFLOW_FLAG IEEE_DENORMAL
Note: The following floating-point exceptions are signalling: IEEE_UNDERFLOW_FLAG IEEE_DENORMAL
Note: The following floating-point exceptions are signalling: IEEE_UNDERFLOW_FLAG IEEE_DENORMAL
Note: The following floating-point exceptions are signalling: IEEE_UNDERFLOW_FLAG IEEE_DENORMAL
Note: The following floating-point exceptions are signalling: IEEE_UNDERFLOW_FLAG IEEE_DENORMAL
Note: The following floating-point exceptions are signalling: IEEE_UNDERFLOW_FLAG IEEE_DENORMAL
Note: The following floating-point exceptions are signalling: IEEE_UNDERFLOW_FLAG IEEE_DENORMAL
Note: The following floating-point exceptions are signalling: IEEE_UNDERFLOW_FLAG IEEE_DENORMAL
Note: The following floating-point exceptions are signalling: IEEE_UNDERFLOW_FLAG IEEE_DENORMAL
Note: The following floating-point exceptions are signalling: IEEE_UNDERFLOW_FLAG IEEE_DENORMAL
Note: The following floating-point exceptions are signalling: IEEE_UNDERFLOW_FLAG IEEE_DENORMAL
Note: The following floating-point exceptions are signalling: IEEE_UNDERFLOW_FLAG IEEE_DENORMAL
Note: The following floating-point exceptions are signalling: IEEE_UNDERFLOW_FLAG IEEE_DENORMAL
Note: The following floating-point exceptions are signalling: IEEE_UNDERFLOW_FLAG IEEE_DENORMAL
Note: The following floating-point exceptions are signalling: IEEE_UNDERFLOW_FLAG IEEE_DENORMAL
Note: The following floating-point exceptions are signalling: IEEE_UNDERFLOW_FLAG IEEE_DENORMAL
Note: The following floating-point exceptions are signalling: IEEE_UNDERFLOW_FLAG IEEE_DENORMAL
Note: The following floating-point exceptions are signalling: IEEE_UNDERFLOW_FLAG IEEE_DENORMAL
Note: The following floating-point exceptions are signalling: IEEE_UNDERFLOW_FLAG IEEE_DENORMAL
Note: The following floating-point exceptions are signalling: IEEE_UNDERFLOW_FLAG IEEE_DENORMAL
Note: The following floating-point exceptions are signalling: IEEE_UNDERFLOW_FLAG IEEE_DENORMAL
