
     Program PWSCF v.6.7MaX starts on  8Dec2021 at 19:20: 0 

     This program is part of the open-source Quantum ESPRESSO suite
     for quantum simulation of materials; please cite
         "P. Giannozzi et al., J. Phys.:Condens. Matter 21 395502 (2009);
         "P. Giannozzi et al., J. Phys.:Condens. Matter 29 465901 (2017);
          URL http://www.quantum-espresso.org", 
     in publications or presentations arising from this work. More details at
     http://www.quantum-espresso.org/quote

     Parallel version (MPI), running on    12 processors

     MPI processes distributed on     1 nodes
     R & G space division:  proc/nbgrp/npool/nimage =      12
     Reading input from Opt-B1-CrNi.in

     Current dimensions of program PWSCF are:
     Max number of different atomic species (ntypx) = 10
     Max number of k-points (npk) =  40000
     Max angular momentum in pseudopotentials (lmaxx) =  3

     Subspace diagonalization in iterative solution of the eigenvalue problem:
     a serial algorithm will be used


     Parallelization info
     --------------------
     sticks:   dense  smooth     PW     G-vecs:    dense   smooth      PW
     Min         140      47     15                 3825      738     140
     Max         142      49     16                 3827      740     143
     Sum        1687     571    187                45911     8873    1687



     bravais-lattice index     =            2
     lattice parameter (alat)  =       6.7548  a.u.
     unit-cell volume          =      77.0511 (a.u.)^3
     number of atoms/cell      =            2
     number of atomic types    =            2
     number of electrons       =        32.00
     number of Kohn-Sham states=           20
     kinetic-energy cutoff     =      90.0000  Ry
     charge density cutoff     =    1080.0000  Ry
     scf convergence threshold =      1.0E-08
     mixing beta               =       0.2000
     number of iterations used =            8  plain     mixing
     energy convergence thresh.=      1.0E-05
     force convergence thresh. =      1.0E-04
     press convergence thresh. =      1.0E-01
     Exchange-correlation=  SLA  PW   PBX  PBC
                           (   1   4   3   4   0   0   0)
     nstep                     =          100


     celldm(1)=   6.754806  celldm(2)=   0.000000  celldm(3)=   0.000000
     celldm(4)=   0.000000  celldm(5)=   0.000000  celldm(6)=   0.000000

     crystal axes: (cart. coord. in units of alat)
               a(1) = (  -0.500000   0.000000   0.500000 )  
               a(2) = (   0.000000   0.500000   0.500000 )  
               a(3) = (  -0.500000   0.500000   0.000000 )  

     reciprocal axes: (cart. coord. in units 2 pi/alat)
               b(1) = ( -1.000000 -1.000000  1.000000 )  
               b(2) = (  1.000000  1.000000  1.000000 )  
               b(3) = ( -1.000000  1.000000 -1.000000 )  


     PseudoPot. # 1 for Ni read from file:
     /opt/QEpot/SSSP_efficiency_pseudos/ni_pbe_v1.4.uspp.F.UPF
     MD5 check sum: 1ee80287db30b12d2bc1f57a5b5d6409
     Pseudo is Ultrasoft + core correction, Zval = 18.0
     Generated by new atomic code, or converted to UPF format
     Using radial grid of  865 points,  6 beta functions with: 
                l(1) =   0
                l(2) =   0
                l(3) =   1
                l(4) =   1
                l(5) =   2
                l(6) =   2
     Q(r) pseudized with 10 coefficients,  rinner =    0.980   0.980   0.980
                                                       0.980   0.980

     PseudoPot. # 2 for Cr read from file:
     /opt/QEpot/SSSP_efficiency_pseudos/cr_pbe_v1.5.uspp.F.UPF
     MD5 check sum: 0d52af634a40206e4dee301ad30da4bf
     Pseudo is Ultrasoft + core correction, Zval = 14.0
     Generated by new atomic code, or converted to UPF format
     Using radial grid of  857 points,  6 beta functions with: 
                l(1) =   0
                l(2) =   0
                l(3) =   1
                l(4) =   1
                l(5) =   2
                l(6) =   2
     Q(r) pseudized with  8 coefficients,  rinner =    0.950   0.950   0.950
                                                       0.950   0.950

     atomic species   valence    mass     pseudopotential
        Ni            18.00    58.69300     Ni( 1.00)
        Cr            14.00    51.99610     Cr( 1.00)

     Starting magnetic structure 
     atomic species   magnetization
        Ni           0.200
        Cr           0.200

     No symmetry found



   Cartesian axes

     site n.     atom                  positions (alat units)
         1           Ni  tau(   1) = (   0.5000000   0.5000000   0.5000000  )
         2           Cr  tau(   2) = (   0.0000000   0.0000000   0.0000000  )

     number of k points=   504  Gaussian smearing, width (Ry)=  0.0100

     Number of k-points >= 100: set verbosity='high' to print them.

     Dense  grid:    45911 G-vectors     FFT dimensions: (  50,  50,  50)

     Smooth grid:     8873 G-vectors     FFT dimensions: (  30,  30,  30)

     Estimated max dynamical RAM per process >      54.93 MB

     Estimated total dynamical RAM >     659.17 MB

     Check: negative core charge=   -0.000010
     Generating pointlists ...
     new r_m :   0.2063 (alat units)  1.3932 (a.u.) for type    1
     new r_m :   0.2063 (alat units)  1.3932 (a.u.) for type    2

     Initial potential from superposition of free atoms

     starting charge   28.99998, renormalised to   32.00000

     negative rho (up, down):  6.141E-04 4.094E-04
     Starting wfcs are   23 randomized atomic wfcs

     total cpu time spent up to now is        3.9 secs

     Self-consistent Calculation

     iteration #  1     ecut=    90.00 Ry     beta= 0.20
     Davidson diagonalization with overlap
     ethr =  1.00E-02,  avg # of iterations =  3.4

     negative rho (up, down):  2.074E-04 2.028E-04

     total cpu time spent up to now is       14.5 secs

     total energy              =    -513.13969446 Ry
     estimated scf accuracy    <      29.39356638 Ry

     total magnetization       =     1.63 Bohr mag/cell
     absolute magnetization    =     1.63 Bohr mag/cell

     iteration #  2     ecut=    90.00 Ry     beta= 0.20
     Davidson diagonalization with overlap
     ethr =  1.00E-02,  avg # of iterations =  3.0

     negative rho (up, down):  4.030E-04 4.758E-04

     total cpu time spent up to now is       24.6 secs

     total energy              =    -517.25127479 Ry
     estimated scf accuracy    <       3.77473447 Ry

     total magnetization       =     1.23 Bohr mag/cell
     absolute magnetization    =     1.23 Bohr mag/cell

     iteration #  3     ecut=    90.00 Ry     beta= 0.20
     Davidson diagonalization with overlap
     ethr =  1.00E-02,  avg # of iterations =  1.5

     negative rho (up, down):  5.124E-04 1.055E-03

     total cpu time spent up to now is       31.5 secs

     total energy              =    -516.97679254 Ry
     estimated scf accuracy    <       1.06035808 Ry

     total magnetization       =     1.51 Bohr mag/cell
     absolute magnetization    =     1.51 Bohr mag/cell

     iteration #  4     ecut=    90.00 Ry     beta= 0.20
     Davidson diagonalization with overlap
     ethr =  3.31E-03,  avg # of iterations =  2.4

     negative rho (up, down):  5.634E-04 1.100E-03

     total cpu time spent up to now is       40.7 secs

     total energy              =    -517.42327219 Ry
     estimated scf accuracy    <       0.62130631 Ry

     total magnetization       =     1.52 Bohr mag/cell
     absolute magnetization    =     1.52 Bohr mag/cell

     iteration #  5     ecut=    90.00 Ry     beta= 0.20
     Davidson diagonalization with overlap
     ethr =  1.94E-03,  avg # of iterations =  1.0

     negative rho (up, down):  3.928E-04 1.455E-03

     total cpu time spent up to now is       47.4 secs

     total energy              =    -517.58151257 Ry
     estimated scf accuracy    <       1.04409216 Ry

     total magnetization       =     1.52 Bohr mag/cell
     absolute magnetization    =     1.53 Bohr mag/cell

     iteration #  6     ecut=    90.00 Ry     beta= 0.20
     Davidson diagonalization with overlap
     ethr =  1.94E-03,  avg # of iterations =  1.0

     negative rho (up, down):  5.031E-05 1.545E-03

     total cpu time spent up to now is       54.1 secs

     total energy              =    -517.25415831 Ry
     estimated scf accuracy    <       2.09762826 Ry

     total magnetization       =     1.21 Bohr mag/cell
     absolute magnetization    =     1.22 Bohr mag/cell

     iteration #  7     ecut=    90.00 Ry     beta= 0.20
     Davidson diagonalization with overlap
     ethr =  1.94E-03,  avg # of iterations =  1.9

     negative rho (up, down):  4.766E-05 1.460E-03

     total cpu time spent up to now is       61.5 secs

     total energy              =    -517.34626639 Ry
     estimated scf accuracy    <       0.22639110 Ry

     total magnetization       =     0.83 Bohr mag/cell
     absolute magnetization    =     0.84 Bohr mag/cell

     iteration #  8     ecut=    90.00 Ry     beta= 0.20
     Davidson diagonalization with overlap
     ethr =  7.07E-04,  avg # of iterations =  1.0

     negative rho (up, down):  4.980E-05 1.120E-03

     total cpu time spent up to now is       68.2 secs

     total energy              =    -517.31545198 Ry
     estimated scf accuracy    <       0.14179246 Ry

     total magnetization       =     0.78 Bohr mag/cell
     absolute magnetization    =     0.78 Bohr mag/cell

     iteration #  9     ecut=    90.00 Ry     beta= 0.20
     Davidson diagonalization with overlap
     ethr =  4.43E-04,  avg # of iterations =  1.9

     negative rho (up, down):  5.938E-05 9.169E-04

     total cpu time spent up to now is       75.6 secs

     total energy              =    -517.33167952 Ry
     estimated scf accuracy    <       0.00564410 Ry

     total magnetization       =     0.64 Bohr mag/cell
     absolute magnetization    =     0.64 Bohr mag/cell

     iteration # 10     ecut=    90.00 Ry     beta= 0.20
     Davidson diagonalization with overlap
     ethr =  1.76E-05,  avg # of iterations =  2.0

     negative rho (up, down):  6.216E-05 7.449E-04

     total cpu time spent up to now is       83.8 secs

     total energy              =    -517.32677111 Ry
     estimated scf accuracy    <       0.05589643 Ry

     total magnetization       =     0.60 Bohr mag/cell
     absolute magnetization    =     0.60 Bohr mag/cell

     iteration # 11     ecut=    90.00 Ry     beta= 0.20
     Davidson diagonalization with overlap
     ethr =  1.76E-05,  avg # of iterations =  2.3

     negative rho (up, down):  1.019E-04 6.238E-04

     total cpu time spent up to now is       92.9 secs

     total energy              =    -517.33162382 Ry
     estimated scf accuracy    <       0.00434564 Ry

     total magnetization       =     0.43 Bohr mag/cell
     absolute magnetization    =     0.44 Bohr mag/cell

     iteration # 12     ecut=    90.00 Ry     beta= 0.20
     Davidson diagonalization with overlap
     ethr =  1.36E-05,  avg # of iterations =  1.7

     negative rho (up, down):  2.538E-04 5.088E-04

     total cpu time spent up to now is      100.2 secs

     total energy              =    -517.33233069 Ry
     estimated scf accuracy    <       0.00223768 Ry

     total magnetization       =     0.30 Bohr mag/cell
     absolute magnetization    =     0.30 Bohr mag/cell

     iteration # 13     ecut=    90.00 Ry     beta= 0.20
     Davidson diagonalization with overlap
     ethr =  6.99E-06,  avg # of iterations =  1.5

     negative rho (up, down):  3.091E-04 4.724E-04

     total cpu time spent up to now is      107.6 secs

     total energy              =    -517.33321306 Ry
     estimated scf accuracy    <       0.00039137 Ry

     total magnetization       =     0.14 Bohr mag/cell
     absolute magnetization    =     0.14 Bohr mag/cell

     iteration # 14     ecut=    90.00 Ry     beta= 0.20
     Davidson diagonalization with overlap
     ethr =  1.22E-06,  avg # of iterations =  2.3

     negative rho (up, down):  3.652E-04 4.120E-04

     total cpu time spent up to now is      116.1 secs

     total energy              =    -517.33330947 Ry
     estimated scf accuracy    <       0.00061517 Ry

     total magnetization       =     0.09 Bohr mag/cell
     absolute magnetization    =     0.09 Bohr mag/cell

     iteration # 15     ecut=    90.00 Ry     beta= 0.20
     Davidson diagonalization with overlap
     ethr =  1.22E-06,  avg # of iterations =  1.5

     negative rho (up, down):  3.918E-04 3.838E-04

     total cpu time spent up to now is      123.2 secs

     total energy              =    -517.33343376 Ry
     estimated scf accuracy    <       0.00008332 Ry

     total magnetization       =     0.02 Bohr mag/cell
     absolute magnetization    =     0.02 Bohr mag/cell

     iteration # 16     ecut=    90.00 Ry     beta= 0.20
     Davidson diagonalization with overlap
     ethr =  2.60E-07,  avg # of iterations =  1.7

     negative rho (up, down):  3.813E-04 3.953E-04

     total cpu time spent up to now is      130.7 secs

     total energy              =    -517.33345721 Ry
     estimated scf accuracy    <       0.00000466 Ry

     total magnetization       =    -0.01 Bohr mag/cell
     absolute magnetization    =     0.01 Bohr mag/cell

     iteration # 17     ecut=    90.00 Ry     beta= 0.20
     Davidson diagonalization with overlap
     ethr =  1.46E-08,  avg # of iterations =  2.1

     negative rho (up, down):  3.970E-04 3.787E-04

     total cpu time spent up to now is      138.8 secs

     total energy              =    -517.33344726 Ry
     estimated scf accuracy    <       0.00001390 Ry

     total magnetization       =     0.01 Bohr mag/cell
     absolute magnetization    =     0.01 Bohr mag/cell

     iteration # 18     ecut=    90.00 Ry     beta= 0.20
     Davidson diagonalization with overlap
     ethr =  1.46E-08,  avg # of iterations =  2.5

     negative rho (up, down):  3.904E-04 3.855E-04

     total cpu time spent up to now is      147.8 secs

     total energy              =    -517.33346123 Ry
     estimated scf accuracy    <       0.00000286 Ry

     total magnetization       =    -0.01 Bohr mag/cell
     absolute magnetization    =     0.01 Bohr mag/cell

     iteration # 19     ecut=    90.00 Ry     beta= 0.20
     Davidson diagonalization with overlap
     ethr =  8.95E-09,  avg # of iterations =  1.5

     negative rho (up, down):  3.870E-04 3.888E-04

     total cpu time spent up to now is      154.9 secs

     total energy              =    -517.33346280 Ry
     estimated scf accuracy    <       0.00000011 Ry

     total magnetization       =    -0.00 Bohr mag/cell
     absolute magnetization    =     0.00 Bohr mag/cell

     iteration # 20     ecut=    90.00 Ry     beta= 0.20
     Davidson diagonalization with overlap
     ethr =  3.50E-10,  avg # of iterations =  2.7

     negative rho (up, down):  3.877E-04 3.882E-04

     total cpu time spent up to now is      164.3 secs

     total energy              =    -517.33346327 Ry
     estimated scf accuracy    <       0.00000012 Ry

     total magnetization       =     0.00 Bohr mag/cell
     absolute magnetization    =     0.00 Bohr mag/cell

     iteration # 21     ecut=    90.00 Ry     beta= 0.20
     Davidson diagonalization with overlap
     ethr =  3.50E-10,  avg # of iterations =  1.7

     negative rho (up, down):  3.878E-04 3.881E-04

     Magnetic moment per site:
     atom:    1    charge:   15.4669    magn:    0.0001    constr:    0.0000
     atom:    2    charge:   11.0479    magn:    0.0002    constr:    0.0000

     total cpu time spent up to now is      171.6 secs

     End of self-consistent calculation

     Number of k-points >= 100: set verbosity='high' to print the bands.

     the Fermi energy is    41.0942 ev

!    total energy              =    -517.33346335 Ry
     estimated scf accuracy    <          1.7E-09 Ry
     smearing contrib. (-TS)   =      -0.00138227 Ry
     internal energy E=F+TS    =    -517.33208108 Ry

     The total energy is F=E-TS. E is the sum of the following terms:
     one-electron contribution =    -133.00430230 Ry
     hartree contribution      =     110.07938664 Ry
     xc contribution           =     -60.14542949 Ry
     ewald contribution        =    -434.26173593 Ry

     total magnetization       =     0.00 Bohr mag/cell
     absolute magnetization    =     0.00 Bohr mag/cell

     convergence has been achieved in  21 iterations

     negative rho (up, down):  3.878E-04 3.881E-04

     Forces acting on atoms (cartesian axes, Ry/au):

     atom    1 type  1   force =    -0.00000002    0.00000028    0.00000015
     atom    2 type  2   force =     0.00000002   -0.00000028   -0.00000015

     Total force =     0.000000     Total SCF correction =     0.000001
     SCF correction compared to forces is large: reduce conv_thr to get better values


     Computing stress (Cartesian axis) and pressure


     negative rho (up, down):  3.878E-04 3.881E-04
          total   stress  (Ry/bohr**3)                   (kbar)     P=     8024.11
   0.05454681  -0.00000000  -0.00000000         8024.11       -0.00       -0.00
  -0.00000000   0.05454678  -0.00000000           -0.00     8024.11       -0.00
  -0.00000000  -0.00000000   0.05454679           -0.00       -0.00     8024.11


     BFGS Geometry Optimization
     Energy error            =      0.0E+00
     Gradient error          =      2.8E-07
     Cell gradient error     =      5.5E-02


     number of scf cycles    =   1
     number of bfgs steps    =   0

     enthalpy new            =    -517.3334633462 Ry

     new trust radius        =       0.5000000000 bohr
     new conv_thr            =       0.0000000100 Ry

     new unit-cell volume =    163.41512 a.u.^3 (    24.21562 Ang^3 )
     density =      7.59029 g/cm^3

CELL_PARAMETERS (alat=  6.75480571)
  -0.642403523  -0.000000001   0.642403477
  -0.000000006   0.642403441   0.642403471
  -0.642403521   0.642403445   0.000000001

ATOMIC_POSITIONS (alat)
Ni            0.6424035121        0.6424034496        0.6424034730
Cr            0.0000000010       -0.0000000112       -0.0000000061



     Writing output data file ./pwscf.save/
     NEW-OLD atomic charge density approx. for the potential

     Check: negative core charge=   -0.000009

     negative rho (up, down):  2.533E-04 2.534E-04
     extrapolated charge   47.32635, renormalised to   32.00000
     Generating pointlists ...

     total cpu time spent up to now is      175.2 secs

     Self-consistent Calculation

     iteration #  1     ecut=    90.00 Ry     beta= 0.20
     Davidson diagonalization with overlap
     c_bands:  1 eigenvalues not converged
     c_bands:  2 eigenvalues not converged
     c_bands:  1 eigenvalues not converged
     c_bands:  2 eigenvalues not converged
     c_bands:  1 eigenvalues not converged
     c_bands:  2 eigenvalues not converged
     c_bands:  2 eigenvalues not converged
     c_bands:  2 eigenvalues not converged
     c_bands:  1 eigenvalues not converged
     c_bands:  1 eigenvalues not converged
     c_bands:  3 eigenvalues not converged
     c_bands:  1 eigenvalues not converged
     c_bands:  2 eigenvalues not converged
     c_bands:  2 eigenvalues not converged
     c_bands:  1 eigenvalues not converged
     c_bands:  1 eigenvalues not converged
     c_bands:  2 eigenvalues not converged
     c_bands:  1 eigenvalues not converged
     c_bands:  1 eigenvalues not converged
     c_bands:  1 eigenvalues not converged
     c_bands:  3 eigenvalues not converged
     c_bands:  1 eigenvalues not converged
     c_bands:  1 eigenvalues not converged
     c_bands:  2 eigenvalues not converged
     c_bands:  1 eigenvalues not converged
     c_bands:  2 eigenvalues not converged
     c_bands:  2 eigenvalues not converged
     c_bands:  2 eigenvalues not converged
     c_bands:  1 eigenvalues not converged
     c_bands:  2 eigenvalues not converged
     c_bands:  2 eigenvalues not converged
     c_bands:  1 eigenvalues not converged
     c_bands:  1 eigenvalues not converged
     c_bands:  1 eigenvalues not converged
     c_bands:  1 eigenvalues not converged
     c_bands:  1 eigenvalues not converged
     c_bands:  1 eigenvalues not converged
     c_bands:  1 eigenvalues not converged
     c_bands:  1 eigenvalues not converged
     c_bands:  1 eigenvalues not converged
     c_bands:  2 eigenvalues not converged
     c_bands:  2 eigenvalues not converged
     c_bands:  1 eigenvalues not converged
     c_bands:  2 eigenvalues not converged
     c_bands:  4 eigenvalues not converged
     c_bands:  2 eigenvalues not converged
     c_bands:  2 eigenvalues not converged
     c_bands:  1 eigenvalues not converged
     c_bands:  1 eigenvalues not converged
     c_bands:  1 eigenvalues not converged
     c_bands:  1 eigenvalues not converged
     c_bands:  2 eigenvalues not converged
     c_bands:  1 eigenvalues not converged
     c_bands:  1 eigenvalues not converged
     c_bands:  2 eigenvalues not converged
     c_bands:  4 eigenvalues not converged
     c_bands:  4 eigenvalues not converged
     c_bands:  2 eigenvalues not converged
     c_bands:  1 eigenvalues not converged
     c_bands:  1 eigenvalues not converged
     c_bands:  2 eigenvalues not converged
     c_bands:  1 eigenvalues not converged
     c_bands:  1 eigenvalues not converged
     c_bands:  1 eigenvalues not converged
     c_bands:  2 eigenvalues not converged
     c_bands:  2 eigenvalues not converged
     c_bands:  1 eigenvalues not converged
     c_bands:  2 eigenvalues not converged
     c_bands:  2 eigenvalues not converged
     c_bands:  4 eigenvalues not converged
     c_bands:  2 eigenvalues not converged
     c_bands:  1 eigenvalues not converged
     c_bands:  1 eigenvalues not converged
     c_bands:  1 eigenvalues not converged
     c_bands:  1 eigenvalues not converged
     c_bands:  1 eigenvalues not converged
     c_bands:  1 eigenvalues not converged
     c_bands:  1 eigenvalues not converged
     c_bands:  1 eigenvalues not converged
     c_bands:  1 eigenvalues not converged
     c_bands:  2 eigenvalues not converged
     c_bands:  1 eigenvalues not converged
     c_bands:  1 eigenvalues not converged
     c_bands:  3 eigenvalues not converged
     c_bands:  1 eigenvalues not converged
     c_bands:  2 eigenvalues not converged
     c_bands:  1 eigenvalues not converged
     c_bands:  1 eigenvalues not converged
     c_bands:  1 eigenvalues not converged
     c_bands:  1 eigenvalues not converged
     c_bands:  1 eigenvalues not converged
     c_bands:  1 eigenvalues not converged
     c_bands:  1 eigenvalues not converged
     c_bands:  1 eigenvalues not converged
     c_bands:  1 eigenvalues not converged
     c_bands:  2 eigenvalues not converged
     c_bands:  2 eigenvalues not converged
     c_bands:  1 eigenvalues not converged
     c_bands:  3 eigenvalues not converged
     c_bands:  1 eigenvalues not converged
     c_bands:  1 eigenvalues not converged
     c_bands:  2 eigenvalues not converged
     c_bands:  2 eigenvalues not converged
     c_bands:  1 eigenvalues not converged
     c_bands:  2 eigenvalues not converged
     c_bands:  2 eigenvalues not converged
     c_bands:  4 eigenvalues not converged
     c_bands:  2 eigenvalues not converged
     c_bands:  1 eigenvalues not converged
     c_bands:  1 eigenvalues not converged
     c_bands:  2 eigenvalues not converged
     c_bands:  1 eigenvalues not converged
     c_bands:  2 eigenvalues not converged
     c_bands:  1 eigenvalues not converged
     c_bands:  2 eigenvalues not converged
     c_bands:  1 eigenvalues not converged
     c_bands:  1 eigenvalues not converged
     c_bands:  1 eigenvalues not converged
     c_bands:  2 eigenvalues not converged
     c_bands:  2 eigenvalues not converged
     c_bands:  2 eigenvalues not converged
     c_bands:  4 eigenvalues not converged
     c_bands:  3 eigenvalues not converged
     c_bands:  3 eigenvalues not converged
     c_bands:  2 eigenvalues not converged
     c_bands:  1 eigenvalues not converged
     c_bands:  1 eigenvalues not converged
     c_bands:  2 eigenvalues not converged
     c_bands:  1 eigenvalues not converged
     c_bands:  1 eigenvalues not converged
     c_bands:  1 eigenvalues not converged
     c_bands:  4 eigenvalues not converged
     c_bands:  2 eigenvalues not converged
     c_bands:  2 eigenvalues not converged
     c_bands:  2 eigenvalues not converged
     c_bands:  1 eigenvalues not converged
     c_bands:  2 eigenvalues not converged
     c_bands:  1 eigenvalues not converged
     c_bands:  2 eigenvalues not converged
     c_bands:  1 eigenvalues not converged
     c_bands:  2 eigenvalues not converged
     c_bands:  1 eigenvalues not converged
     c_bands:  2 eigenvalues not converged
     c_bands:  1 eigenvalues not converged
     c_bands:  2 eigenvalues not converged
     c_bands:  4 eigenvalues not converged
     c_bands:  2 eigenvalues not converged
     c_bands:  2 eigenvalues not converged
     c_bands:  1 eigenvalues not converged
     c_bands:  2 eigenvalues not converged
     c_bands:  2 eigenvalues not converged
     c_bands:  1 eigenvalues not converged
     c_bands:  1 eigenvalues not converged
     c_bands:  2 eigenvalues not converged
     c_bands:  1 eigenvalues not converged
     c_bands:  2 eigenvalues not converged
     c_bands:  2 eigenvalues not converged
     c_bands:  1 eigenvalues not converged
     c_bands:  2 eigenvalues not converged
     c_bands:  4 eigenvalues not converged
     c_bands:  2 eigenvalues not converged
     c_bands:  2 eigenvalues not converged
     c_bands:  1 eigenvalues not converged
     c_bands:  1 eigenvalues not converged
     c_bands:  2 eigenvalues not converged
     c_bands:  2 eigenvalues not converged
     c_bands:  1 eigenvalues not converged
     c_bands:  2 eigenvalues not converged
     c_bands:  2 eigenvalues not converged
     c_bands:  4 eigenvalues not converged
     c_bands:  2 eigenvalues not converged
     c_bands:  2 eigenvalues not converged
     c_bands:  1 eigenvalues not converged
     c_bands:  2 eigenvalues not converged
     c_bands:  1 eigenvalues not converged
     c_bands:  1 eigenvalues not converged
     c_bands:  1 eigenvalues not converged
     c_bands:  1 eigenvalues not converged
     c_bands:  1 eigenvalues not converged
     c_bands:  2 eigenvalues not converged
     c_bands:  1 eigenvalues not converged
     c_bands:  2 eigenvalues not converged
     c_bands:  2 eigenvalues not converged
     c_bands:  1 eigenvalues not converged
     c_bands:  1 eigenvalues not converged
     c_bands:  1 eigenvalues not converged
     c_bands:  4 eigenvalues not converged
     c_bands:  2 eigenvalues not converged
     c_bands:  1 eigenvalues not converged
     c_bands:  4 eigenvalues not converged
     c_bands:  2 eigenvalues not converged
     c_bands:  2 eigenvalues not converged
     c_bands:  2 eigenvalues not converged
     c_bands:  4 eigenvalues not converged
     c_bands:  1 eigenvalues not converged
     c_bands:  1 eigenvalues not converged
     c_bands:  2 eigenvalues not converged
     c_bands:  1 eigenvalues not converged
     c_bands:  2 eigenvalues not converged
     c_bands:  2 eigenvalues not converged
     c_bands:  4 eigenvalues not converged
     c_bands:  1 eigenvalues not converged
     c_bands:  1 eigenvalues not converged
     c_bands:  2 eigenvalues not converged
     c_bands:  1 eigenvalues not converged
     c_bands:  1 eigenvalues not converged
     c_bands:  4 eigenvalues not converged
     c_bands:  2 eigenvalues not converged
     c_bands:  1 eigenvalues not converged
     c_bands:  2 eigenvalues not converged
     c_bands:  2 eigenvalues not converged
     c_bands:  2 eigenvalues not converged
     c_bands:  4 eigenvalues not converged
     c_bands:  1 eigenvalues not converged
     c_bands:  1 eigenvalues not converged
     c_bands:  1 eigenvalues not converged
     c_bands:  1 eigenvalues not converged
     c_bands:  1 eigenvalues not converged
     c_bands:  2 eigenvalues not converged
     c_bands:  1 eigenvalues not converged
     c_bands:  1 eigenvalues not converged
     c_bands:  1 eigenvalues not converged
     c_bands:  3 eigenvalues not converged
     c_bands:  1 eigenvalues not converged
     c_bands:  1 eigenvalues not converged
     c_bands:  1 eigenvalues not converged
     c_bands:  2 eigenvalues not converged
     c_bands:  1 eigenvalues not converged
     c_bands:  1 eigenvalues not converged
     c_bands:  1 eigenvalues not converged
     c_bands:  2 eigenvalues not converged
     c_bands:  1 eigenvalues not converged
     c_bands:  2 eigenvalues not converged
     c_bands:  1 eigenvalues not converged
     c_bands:  2 eigenvalues not converged
     c_bands:  1 eigenvalues not converged
     c_bands:  1 eigenvalues not converged
     c_bands:  1 eigenvalues not converged
     c_bands:  2 eigenvalues not converged
     c_bands:  1 eigenvalues not converged
     c_bands:  1 eigenvalues not converged
     c_bands:  3 eigenvalues not converged
     c_bands:  1 eigenvalues not converged
     c_bands:  2 eigenvalues not converged
     c_bands:  1 eigenvalues not converged
     c_bands:  4 eigenvalues not converged
     c_bands:  1 eigenvalues not converged
     c_bands:  2 eigenvalues not converged
     c_bands:  3 eigenvalues not converged
     c_bands:  3 eigenvalues not converged
     c_bands:  2 eigenvalues not converged
     c_bands:  1 eigenvalues not converged
     c_bands:  1 eigenvalues not converged
     c_bands:  1 eigenvalues not converged
     c_bands:  2 eigenvalues not converged
     c_bands:  1 eigenvalues not converged
     c_bands:  1 eigenvalues not converged
     c_bands:  4 eigenvalues not converged
     c_bands:  2 eigenvalues not converged
     c_bands:  2 eigenvalues not converged
     c_bands:  2 eigenvalues not converged
     c_bands:  4 eigenvalues not converged
     c_bands:  3 eigenvalues not converged
     c_bands:  2 eigenvalues not converged
     c_bands:  1 eigenvalues not converged
     c_bands:  1 eigenvalues not converged
     c_bands:  2 eigenvalues not converged
     c_bands:  3 eigenvalues not converged
     c_bands:  1 eigenvalues not converged
     c_bands:  2 eigenvalues not converged
     c_bands:  4 eigenvalues not converged
     c_bands:  1 eigenvalues not converged
     c_bands:  1 eigenvalues not converged
     c_bands:  2 eigenvalues not converged
     c_bands:  4 eigenvalues not converged
     c_bands:  1 eigenvalues not converged
     c_bands:  1 eigenvalues not converged
     c_bands:  1 eigenvalues not converged
     c_bands:  2 eigenvalues not converged
     c_bands:  2 eigenvalues not converged
     c_bands:  2 eigenvalues not converged
     c_bands:  4 eigenvalues not converged
     c_bands:  2 eigenvalues not converged
     c_bands:  2 eigenvalues not converged
     c_bands:  1 eigenvalues not converged
     c_bands:  1 eigenvalues not converged
     c_bands:  1 eigenvalues not converged
     c_bands:  4 eigenvalues not converged
     c_bands:  2 eigenvalues not converged
     c_bands:  2 eigenvalues not converged
     c_bands:  1 eigenvalues not converged
     c_bands:  4 eigenvalues not converged
     c_bands:  1 eigenvalues not converged
     c_bands:  1 eigenvalues not converged
     c_bands:  2 eigenvalues not converged
     c_bands:  1 eigenvalues not converged
     c_bands:  2 eigenvalues not converged
     c_bands:  1 eigenvalues not converged
     c_bands:  2 eigenvalues not converged
     c_bands:  2 eigenvalues not converged
     c_bands:  2 eigenvalues not converged
     c_bands:  1 eigenvalues not converged
     c_bands:  1 eigenvalues not converged
     c_bands:  3 eigenvalues not converged
     c_bands:  1 eigenvalues not converged
     c_bands:  2 eigenvalues not converged
     c_bands:  2 eigenvalues not converged
     c_bands:  1 eigenvalues not converged
     c_bands:  1 eigenvalues not converged
     c_bands:  2 eigenvalues not converged
     c_bands:  1 eigenvalues not converged
     c_bands:  1 eigenvalues not converged
     c_bands:  1 eigenvalues not converged
     c_bands:  3 eigenvalues not converged
     c_bands:  1 eigenvalues not converged
     c_bands:  1 eigenvalues not converged
     c_bands:  2 eigenvalues not converged
     c_bands:  1 eigenvalues not converged
     c_bands:  2 eigenvalues not converged
     c_bands:  2 eigenvalues not converged
     c_bands:  2 eigenvalues not converged
     c_bands:  1 eigenvalues not converged
     c_bands:  2 eigenvalues not converged
     c_bands:  2 eigenvalues not converged
     c_bands:  1 eigenvalues not converged
     c_bands:  1 eigenvalues not converged
     c_bands:  1 eigenvalues not converged
     c_bands:  1 eigenvalues not converged
     c_bands:  1 eigenvalues not converged
     c_bands:  1 eigenvalues not converged
     c_bands:  1 eigenvalues not converged
     c_bands:  1 eigenvalues not converged
     c_bands:  1 eigenvalues not converged
     c_bands:  2 eigenvalues not converged
     c_bands:  2 eigenvalues not converged
     c_bands:  1 eigenvalues not converged
     c_bands:  2 eigenvalues not converged
     c_bands:  4 eigenvalues not converged
     c_bands:  2 eigenvalues not converged
     c_bands:  2 eigenvalues not converged
     c_bands:  1 eigenvalues not converged
     c_bands:  1 eigenvalues not converged
     c_bands:  1 eigenvalues not converged
     c_bands:  1 eigenvalues not converged
     c_bands:  2 eigenvalues not converged
     c_bands:  1 eigenvalues not converged
     c_bands:  1 eigenvalues not converged
     c_bands:  2 eigenvalues not converged
     c_bands:  4 eigenvalues not converged
     c_bands:  4 eigenvalues not converged
     c_bands:  2 eigenvalues not converged
     c_bands:  1 eigenvalues not converged
     c_bands:  1 eigenvalues not converged
     c_bands:  2 eigenvalues not converged
     c_bands:  1 eigenvalues not converged
     c_bands:  1 eigenvalues not converged
     c_bands:  1 eigenvalues not converged
     c_bands:  2 eigenvalues not converged
     c_bands:  2 eigenvalues not converged
     c_bands:  1 eigenvalues not converged
     c_bands:  2 eigenvalues not converged
     c_bands:  2 eigenvalues not converged
     c_bands:  4 eigenvalues not converged
     c_bands:  2 eigenvalues not converged
     c_bands:  1 eigenvalues not converged
     c_bands:  1 eigenvalues not converged
     c_bands:  1 eigenvalues not converged
     c_bands:  1 eigenvalues not converged
     c_bands:  1 eigenvalues not converged
     c_bands:  1 eigenvalues not converged
     c_bands:  1 eigenvalues not converged
     c_bands:  1 eigenvalues not converged
     c_bands:  1 eigenvalues not converged
     c_bands:  2 eigenvalues not converged
     c_bands:  1 eigenvalues not converged
     c_bands:  1 eigenvalues not converged
     c_bands:  3 eigenvalues not converged
     c_bands:  1 eigenvalues not converged
     c_bands:  2 eigenvalues not converged
     c_bands:  1 eigenvalues not converged
     c_bands:  1 eigenvalues not converged
     c_bands:  1 eigenvalues not converged
     c_bands:  1 eigenvalues not converged
     c_bands:  1 eigenvalues not converged
     c_bands:  1 eigenvalues not converged
     c_bands:  1 eigenvalues not converged
     c_bands:  1 eigenvalues not converged
     c_bands:  1 eigenvalues not converged
     c_bands:  2 eigenvalues not converged
     c_bands:  2 eigenvalues not converged
     c_bands:  1 eigenvalues not converged
     c_bands:  3 eigenvalues not converged
     c_bands:  1 eigenvalues not converged
     c_bands:  1 eigenvalues not converged
     c_bands:  2 eigenvalues not converged
     c_bands:  2 eigenvalues not converged
     c_bands:  1 eigenvalues not converged
     c_bands:  2 eigenvalues not converged
     c_bands:  2 eigenvalues not converged
     c_bands:  4 eigenvalues not converged
     c_bands:  2 eigenvalues not converged
     c_bands:  1 eigenvalues not converged
     c_bands:  1 eigenvalues not converged
     c_bands:  2 eigenvalues not converged
     c_bands:  1 eigenvalues not converged
     c_bands:  2 eigenvalues not converged
     c_bands:  1 eigenvalues not converged
     c_bands:  2 eigenvalues not converged
     c_bands:  1 eigenvalues not converged
     c_bands:  1 eigenvalues not converged
     c_bands:  1 eigenvalues not converged
     c_bands:  2 eigenvalues not converged
     c_bands:  2 eigenvalues not converged
     c_bands:  2 eigenvalues not converged
     c_bands:  4 eigenvalues not converged
     c_bands:  3 eigenvalues not converged
     c_bands:  3 eigenvalues not converged
     c_bands:  2 eigenvalues not converged
     c_bands:  1 eigenvalues not converged
     c_bands:  1 eigenvalues not converged
     c_bands:  2 eigenvalues not converged
     c_bands:  1 eigenvalues not converged
     c_bands:  1 eigenvalues not converged
     c_bands:  1 eigenvalues not converged
     c_bands:  4 eigenvalues not converged
     c_bands:  2 eigenvalues not converged
     c_bands:  2 eigenvalues not converged
     c_bands:  2 eigenvalues not converged
     c_bands:  1 eigenvalues not converged
     c_bands:  2 eigenvalues not converged
     c_bands:  1 eigenvalues not converged
     c_bands:  2 eigenvalues not converged
     c_bands:  1 eigenvalues not converged
     c_bands:  2 eigenvalues not converged
     c_bands:  1 eigenvalues not converged
     c_bands:  2 eigenvalues not converged
     c_bands:  1 eigenvalues not converged
     c_bands:  2 eigenvalues not converged
     c_bands:  4 eigenvalues not converged
     c_bands:  2 eigenvalues not converged
     c_bands:  2 eigenvalues not converged
     c_bands:  1 eigenvalues not converged
     c_bands:  2 eigenvalues not converged
     c_bands:  2 eigenvalues not converged
     c_bands:  1 eigenvalues not converged
     c_bands:  1 eigenvalues not converged
     c_bands:  2 eigenvalues not converged
     c_bands:  1 eigenvalues not converged
     c_bands:  2 eigenvalues not converged
     c_bands:  2 eigenvalues not converged
     c_bands:  1 eigenvalues not converged
     c_bands:  2 eigenvalues not converged
     c_bands:  4 eigenvalues not converged
     c_bands:  2 eigenvalues not converged
     c_bands:  2 eigenvalues not converged
     c_bands:  1 eigenvalues not converged
     c_bands:  1 eigenvalues not converged
     c_bands:  2 eigenvalues not converged
     c_bands:  2 eigenvalues not converged
     c_bands:  1 eigenvalues not converged
     c_bands:  2 eigenvalues not converged
     c_bands:  2 eigenvalues not converged
     c_bands:  4 eigenvalues not converged
     c_bands:  2 eigenvalues not converged
     c_bands:  2 eigenvalues not converged
     c_bands:  1 eigenvalues not converged
     c_bands:  2 eigenvalues not converged
     c_bands:  1 eigenvalues not converged
     c_bands:  1 eigenvalues not converged
     c_bands:  1 eigenvalues not converged
     c_bands:  1 eigenvalues not converged
     c_bands:  1 eigenvalues not converged
     c_bands:  2 eigenvalues not converged
     c_bands:  1 eigenvalues not converged
     c_bands:  2 eigenvalues not converged
     c_bands:  2 eigenvalues not converged
     c_bands:  1 eigenvalues not converged
     c_bands:  1 eigenvalues not converged
     c_bands:  1 eigenvalues not converged
     c_bands:  4 eigenvalues not converged
     c_bands:  2 eigenvalues not converged
     c_bands:  1 eigenvalues not converged
     c_bands:  4 eigenvalues not converged
     c_bands:  2 eigenvalues not converged
     c_bands:  2 eigenvalues not converged
     c_bands:  2 eigenvalues not converged
     c_bands:  4 eigenvalues not converged
     c_bands:  1 eigenvalues not converged
     c_bands:  1 eigenvalues not converged
     c_bands:  2 eigenvalues not converged
     c_bands:  1 eigenvalues not converged
     c_bands:  2 eigenvalues not converged
     c_bands:  2 eigenvalues not converged
     c_bands:  4 eigenvalues not converged
     c_bands:  1 eigenvalues not converged
     c_bands:  1 eigenvalues not converged
     c_bands:  2 eigenvalues not converged
     c_bands:  1 eigenvalues not converged
     c_bands:  1 eigenvalues not converged
     c_bands:  4 eigenvalues not converged
     c_bands:  2 eigenvalues not converged
     c_bands:  1 eigenvalues not converged
     c_bands:  2 eigenvalues not converged
     c_bands:  2 eigenvalues not converged
     c_bands:  2 eigenvalues not converged
     c_bands:  4 eigenvalues not converged
     c_bands:  1 eigenvalues not converged
     c_bands:  1 eigenvalues not converged
     c_bands:  1 eigenvalues not converged
     c_bands:  1 eigenvalues not converged
     c_bands:  1 eigenvalues not converged
     c_bands:  2 eigenvalues not converged
     c_bands:  1 eigenvalues not converged
     c_bands:  1 eigenvalues not converged
     c_bands:  1 eigenvalues not converged
     c_bands:  3 eigenvalues not converged
     c_bands:  1 eigenvalues not converged
     c_bands:  1 eigenvalues not converged
     c_bands:  1 eigenvalues not converged
     c_bands:  2 eigenvalues not converged
     c_bands:  1 eigenvalues not converged
     c_bands:  1 eigenvalues not converged
     c_bands:  1 eigenvalues not converged
     c_bands:  2 eigenvalues not converged
     c_bands:  1 eigenvalues not converged
     c_bands:  2 eigenvalues not converged
     c_bands:  1 eigenvalues not converged
     c_bands:  2 eigenvalues not converged
     c_bands:  1 eigenvalues not converged
     c_bands:  1 eigenvalues not converged
     c_bands:  1 eigenvalues not converged
     c_bands:  2 eigenvalues not converged
     c_bands:  1 eigenvalues not converged
     c_bands:  1 eigenvalues not converged
     c_bands:  3 eigenvalues not converged
     c_bands:  1 eigenvalues not converged
     c_bands:  2 eigenvalues not converged
     c_bands:  1 eigenvalues not converged
     c_bands:  4 eigenvalues not converged
     c_bands:  1 eigenvalues not converged
     c_bands:  2 eigenvalues not converged
     c_bands:  3 eigenvalues not converged
     c_bands:  3 eigenvalues not converged
     c_bands:  2 eigenvalues not converged
     c_bands:  1 eigenvalues not converged
     c_bands:  1 eigenvalues not converged
     c_bands:  1 eigenvalues not converged
     c_bands:  2 eigenvalues not converged
     c_bands:  1 eigenvalues not converged
     c_bands:  1 eigenvalues not converged
     c_bands:  4 eigenvalues not converged
     c_bands:  2 eigenvalues not converged
     c_bands:  2 eigenvalues not converged
     c_bands:  2 eigenvalues not converged
     c_bands:  4 eigenvalues not converged
     c_bands:  3 eigenvalues not converged
     c_bands:  2 eigenvalues not converged
     c_bands:  1 eigenvalues not converged
     c_bands:  1 eigenvalues not converged
     c_bands:  2 eigenvalues not converged
     c_bands:  3 eigenvalues not converged
     c_bands:  1 eigenvalues not converged
     c_bands:  2 eigenvalues not converged
     c_bands:  4 eigenvalues not converged
     c_bands:  1 eigenvalues not converged
     c_bands:  1 eigenvalues not converged
     c_bands:  2 eigenvalues not converged
     c_bands:  4 eigenvalues not converged
     c_bands:  1 eigenvalues not converged
     c_bands:  1 eigenvalues not converged
     c_bands:  1 eigenvalues not converged
     c_bands:  2 eigenvalues not converged
     c_bands:  2 eigenvalues not converged
     c_bands:  2 eigenvalues not converged
     c_bands:  4 eigenvalues not converged
     c_bands:  2 eigenvalues not converged
     c_bands:  2 eigenvalues not converged
     c_bands:  1 eigenvalues not converged
     c_bands:  1 eigenvalues not converged
     c_bands:  1 eigenvalues not converged
     c_bands:  4 eigenvalues not converged
     c_bands:  2 eigenvalues not converged
     c_bands:  2 eigenvalues not converged
     c_bands:  1 eigenvalues not converged
     c_bands:  4 eigenvalues not converged
     c_bands:  1 eigenvalues not converged
     ethr =  1.00E-06,  avg # of iterations = 19.0

     negative rho (up, down):  8.212E-04 8.216E-04

     total cpu time spent up to now is      218.4 secs

     total energy              =    -439.45622661 Ry
     estimated scf accuracy    <      88.75567291 Ry

     total magnetization       =     0.00 Bohr mag/cell
     absolute magnetization    =     0.00 Bohr mag/cell

     iteration #  2     ecut=    90.00 Ry     beta= 0.20
     Davidson diagonalization with overlap
     ethr =  1.00E-02,  avg # of iterations =  6.1

     negative rho (up, down):  3.216E-04 3.225E-04

     total cpu time spent up to now is      234.3 secs

     total energy              =    -529.37324211 Ry
     estimated scf accuracy    <      46.73461762 Ry

     total magnetization       =     0.00 Bohr mag/cell
     absolute magnetization    =     0.00 Bohr mag/cell

     iteration #  3     ecut=    90.00 Ry     beta= 0.20
     Davidson diagonalization with overlap
     ethr =  1.00E-02,  avg # of iterations =  2.4

     negative rho (up, down):  1.434E-04 1.436E-04

     total cpu time spent up to now is      242.8 secs

     total energy              =    -514.92564616 Ry
     estimated scf accuracy    <      29.48573476 Ry

     total magnetization       =     0.00 Bohr mag/cell
     absolute magnetization    =     0.00 Bohr mag/cell

     iteration #  4     ecut=    90.00 Ry     beta= 0.20
     Davidson diagonalization with overlap
     ethr =  1.00E-02,  avg # of iterations =  2.5

     negative rho (up, down):  1.380E-04 1.381E-04

     total cpu time spent up to now is      252.6 secs

     total energy              =    -518.72498731 Ry
     estimated scf accuracy    <       1.60377716 Ry

     total magnetization       =     0.00 Bohr mag/cell
     absolute magnetization    =     0.00 Bohr mag/cell

     iteration #  5     ecut=    90.00 Ry     beta= 0.20
     Davidson diagonalization with overlap
     ethr =  5.01E-03,  avg # of iterations =  1.1

     negative rho (up, down):  1.368E-04 1.370E-04

     total cpu time spent up to now is      259.3 secs

     total energy              =    -518.42999500 Ry
     estimated scf accuracy    <       2.06409291 Ry

     total magnetization       =     0.00 Bohr mag/cell
     absolute magnetization    =     0.00 Bohr mag/cell

     iteration #  6     ecut=    90.00 Ry     beta= 0.20
     Davidson diagonalization with overlap
     ethr =  5.01E-03,  avg # of iterations =  1.5

     negative rho (up, down):  1.413E-04 1.414E-04

     total cpu time spent up to now is      266.3 secs

     total energy              =    -518.82648884 Ry
     estimated scf accuracy    <       0.70178138 Ry

     total magnetization       =     0.00 Bohr mag/cell
     absolute magnetization    =     0.00 Bohr mag/cell

     iteration #  7     ecut=    90.00 Ry     beta= 0.20
     Davidson diagonalization with overlap
     ethr =  2.19E-03,  avg # of iterations =  1.2

     negative rho (up, down):  1.425E-04 1.427E-04

     total cpu time spent up to now is      273.1 secs

     total energy              =    -518.87343135 Ry
     estimated scf accuracy    <       1.62315021 Ry

     total magnetization       =     0.00 Bohr mag/cell
     absolute magnetization    =     0.00 Bohr mag/cell

     iteration #  8     ecut=    90.00 Ry     beta= 0.20
     Davidson diagonalization with overlap
     ethr =  2.19E-03,  avg # of iterations =  1.0

     negative rho (up, down):  1.713E-04 1.715E-04

     total cpu time spent up to now is      279.8 secs

     total energy              =    -519.00054590 Ry
     estimated scf accuracy    <       1.80308669 Ry

     total magnetization       =     0.00 Bohr mag/cell
     absolute magnetization    =     0.00 Bohr mag/cell

     iteration #  9     ecut=    90.00 Ry     beta= 0.20
     Davidson diagonalization with overlap
     ethr =  2.19E-03,  avg # of iterations =  2.0

     negative rho (up, down):  1.995E-04 1.998E-04

     total cpu time spent up to now is      287.5 secs

     total energy              =    -518.24888996 Ry
     estimated scf accuracy    <       2.81709485 Ry

     total magnetization       =     0.00 Bohr mag/cell
     absolute magnetization    =     0.00 Bohr mag/cell

     iteration # 10     ecut=    90.00 Ry     beta= 0.20
     Davidson diagonalization with overlap
     ethr =  2.19E-03,  avg # of iterations =  2.5

     negative rho (up, down):  1.988E-04 1.991E-04

     total cpu time spent up to now is      296.0 secs

     total energy              =    -518.63494014 Ry
     estimated scf accuracy    <       1.50786194 Ry

     total magnetization       =     0.00 Bohr mag/cell
     absolute magnetization    =     0.00 Bohr mag/cell

     iteration # 11     ecut=    90.00 Ry     beta= 0.20
     Davidson diagonalization with overlap
     ethr =  2.19E-03,  avg # of iterations =  1.0

     negative rho (up, down):  1.946E-04 1.949E-04

     total cpu time spent up to now is      302.6 secs

     total energy              =    -518.58293394 Ry
     estimated scf accuracy    <       0.60313559 Ry

     total magnetization       =     0.00 Bohr mag/cell
     absolute magnetization    =     0.00 Bohr mag/cell

     iteration # 12     ecut=    90.00 Ry     beta= 0.20
     Davidson diagonalization with overlap
     ethr =  1.88E-03,  avg # of iterations =  1.1

     negative rho (up, down):  1.928E-04 1.932E-04

     total cpu time spent up to now is      309.4 secs

     total energy              =    -518.64997228 Ry
     estimated scf accuracy    <       0.07981953 Ry

     total magnetization       =     0.00 Bohr mag/cell
     absolute magnetization    =     0.00 Bohr mag/cell

     iteration # 13     ecut=    90.00 Ry     beta= 0.20
     Davidson diagonalization with overlap
     ethr =  2.49E-04,  avg # of iterations =  2.3

     negative rho (up, down):  1.920E-04 1.923E-04

     total cpu time spent up to now is      317.6 secs

     total energy              =    -518.67150861 Ry
     estimated scf accuracy    <       0.65768852 Ry

     total magnetization       =     0.00 Bohr mag/cell
     absolute magnetization    =     0.00 Bohr mag/cell

     iteration # 14     ecut=    90.00 Ry     beta= 0.20
     Davidson diagonalization with overlap
     ethr =  2.49E-04,  avg # of iterations =  1.0

     negative rho (up, down):  1.930E-04 1.935E-04

     total cpu time spent up to now is      324.3 secs

     total energy              =    -518.62986415 Ry
     estimated scf accuracy    <       0.53136356 Ry

     total magnetization       =     0.00 Bohr mag/cell
     absolute magnetization    =     0.00 Bohr mag/cell

     iteration # 15     ecut=    90.00 Ry     beta= 0.20
     Davidson diagonalization with overlap
     ethr =  2.49E-04,  avg # of iterations =  1.7

     negative rho (up, down):  2.030E-04 2.035E-04

     total cpu time spent up to now is      331.4 secs

     total energy              =    -518.62108340 Ry
     estimated scf accuracy    <       0.15405080 Ry

     total magnetization       =     0.00 Bohr mag/cell
     absolute magnetization    =     0.00 Bohr mag/cell

     iteration # 16     ecut=    90.00 Ry     beta= 0.20
     Davidson diagonalization with overlap
     ethr =  2.49E-04,  avg # of iterations =  2.0

     negative rho (up, down):  2.014E-04 2.019E-04

     total cpu time spent up to now is      338.9 secs

     total energy              =    -518.62843231 Ry
     estimated scf accuracy    <       0.05988013 Ry

     total magnetization       =     0.00 Bohr mag/cell
     absolute magnetization    =     0.00 Bohr mag/cell

     iteration # 17     ecut=    90.00 Ry     beta= 0.20
     Davidson diagonalization with overlap
     ethr =  1.87E-04,  avg # of iterations =  1.0

     negative rho (up, down):  2.038E-04 2.043E-04

     total cpu time spent up to now is      345.5 secs

     total energy              =    -518.62570728 Ry
     estimated scf accuracy    <       0.06175906 Ry

     total magnetization       =     0.00 Bohr mag/cell
     absolute magnetization    =     0.00 Bohr mag/cell

     iteration # 18     ecut=    90.00 Ry     beta= 0.20
     Davidson diagonalization with overlap
     ethr =  1.87E-04,  avg # of iterations =  1.0

     negative rho (up, down):  2.091E-04 2.097E-04

     total cpu time spent up to now is      352.2 secs

     total energy              =    -518.62342437 Ry
     estimated scf accuracy    <       0.02893575 Ry

     total magnetization       =     0.00 Bohr mag/cell
     absolute magnetization    =     0.00 Bohr mag/cell

     iteration # 19     ecut=    90.00 Ry     beta= 0.20
     Davidson diagonalization with overlap
     ethr =  9.04E-05,  avg # of iterations =  1.0

     negative rho (up, down):  2.072E-04 2.079E-04

     total cpu time spent up to now is      358.8 secs

     total energy              =    -518.62479057 Ry
     estimated scf accuracy    <       0.00158296 Ry

     total magnetization       =     0.01 Bohr mag/cell
     absolute magnetization    =     0.01 Bohr mag/cell

     iteration # 20     ecut=    90.00 Ry     beta= 0.20
     Davidson diagonalization with overlap
     ethr =  4.95E-06,  avg # of iterations =  2.0

     negative rho (up, down):  2.093E-04 2.101E-04

     total cpu time spent up to now is      366.3 secs

     total energy              =    -518.62318364 Ry
     estimated scf accuracy    <       0.00929337 Ry

     total magnetization       =     0.01 Bohr mag/cell
     absolute magnetization    =     0.01 Bohr mag/cell

     iteration # 21     ecut=    90.00 Ry     beta= 0.20
     Davidson diagonalization with overlap
     ethr =  4.95E-06,  avg # of iterations =  3.2

     negative rho (up, down):  2.076E-04 2.083E-04

     total cpu time spent up to now is      375.3 secs

     total energy              =    -518.62358997 Ry
     estimated scf accuracy    <       0.01038507 Ry

     total magnetization       =     0.01 Bohr mag/cell
     absolute magnetization    =     0.01 Bohr mag/cell

     iteration # 22     ecut=    90.00 Ry     beta= 0.20
     Davidson diagonalization with overlap
     ethr =  4.95E-06,  avg # of iterations =  2.3

     negative rho (up, down):  2.079E-04 2.088E-04

     total cpu time spent up to now is      383.1 secs

     total energy              =    -518.62444943 Ry
     estimated scf accuracy    <       0.00119249 Ry

     total magnetization       =     0.01 Bohr mag/cell
     absolute magnetization    =     0.01 Bohr mag/cell

     iteration # 23     ecut=    90.00 Ry     beta= 0.20
     Davidson diagonalization with overlap
     ethr =  3.73E-06,  avg # of iterations =  1.0

     negative rho (up, down):  2.076E-04 2.086E-04

     total cpu time spent up to now is      389.8 secs

     total energy              =    -518.62452323 Ry
     estimated scf accuracy    <       0.00052856 Ry

     total magnetization       =     0.01 Bohr mag/cell
     absolute magnetization    =     0.01 Bohr mag/cell

     iteration # 24     ecut=    90.00 Ry     beta= 0.20
     Davidson diagonalization with overlap
     ethr =  1.65E-06,  avg # of iterations =  1.0

     negative rho (up, down):  2.077E-04 2.085E-04

     total cpu time spent up to now is      396.4 secs

     total energy              =    -518.62453446 Ry
     estimated scf accuracy    <       0.00017525 Ry

     total magnetization       =     0.01 Bohr mag/cell
     absolute magnetization    =     0.01 Bohr mag/cell

     iteration # 25     ecut=    90.00 Ry     beta= 0.20
     Davidson diagonalization with overlap
     ethr =  5.48E-07,  avg # of iterations =  1.0

     negative rho (up, down):  2.072E-04 2.087E-04

     total cpu time spent up to now is      403.0 secs

     total energy              =    -518.62450340 Ry
     estimated scf accuracy    <       0.00016501 Ry

     total magnetization       =     0.01 Bohr mag/cell
     absolute magnetization    =     0.01 Bohr mag/cell

     iteration # 26     ecut=    90.00 Ry     beta= 0.20
     Davidson diagonalization with overlap
     ethr =  5.16E-07,  avg # of iterations =  1.1

     negative rho (up, down):  2.064E-04 2.082E-04

     total cpu time spent up to now is      409.7 secs

     total energy              =    -518.62449651 Ry
     estimated scf accuracy    <       0.00004734 Ry

     total magnetization       =     0.01 Bohr mag/cell
     absolute magnetization    =     0.01 Bohr mag/cell

     iteration # 27     ecut=    90.00 Ry     beta= 0.20
     Davidson diagonalization with overlap
     ethr =  1.48E-07,  avg # of iterations =  2.1

     negative rho (up, down):  2.063E-04 2.082E-04

     total cpu time spent up to now is      417.8 secs

     total energy              =    -518.62450296 Ry
     estimated scf accuracy    <       0.00000352 Ry

     total magnetization       =     0.01 Bohr mag/cell
     absolute magnetization    =     0.01 Bohr mag/cell

     iteration # 28     ecut=    90.00 Ry     beta= 0.20
     Davidson diagonalization with overlap
     ethr =  1.10E-08,  avg # of iterations =  2.0

     negative rho (up, down):  2.063E-04 2.082E-04

     total cpu time spent up to now is      425.4 secs

     total energy              =    -518.62450329 Ry
     estimated scf accuracy    <       0.00000064 Ry

     total magnetization       =     0.02 Bohr mag/cell
     absolute magnetization    =     0.02 Bohr mag/cell

     iteration # 29     ecut=    90.00 Ry     beta= 0.20
     Davidson diagonalization with overlap
     ethr =  2.00E-09,  avg # of iterations =  1.0

     negative rho (up, down):  2.064E-04 2.081E-04

     total cpu time spent up to now is      432.1 secs

     total energy              =    -518.62450321 Ry
     estimated scf accuracy    <       0.00000050 Ry

     total magnetization       =     0.02 Bohr mag/cell
     absolute magnetization    =     0.02 Bohr mag/cell

     iteration # 30     ecut=    90.00 Ry     beta= 0.20
     Davidson diagonalization with overlap
     ethr =  1.56E-09,  avg # of iterations =  1.6

     negative rho (up, down):  2.069E-04 2.074E-04

     total cpu time spent up to now is      439.3 secs

     total energy              =    -518.62450133 Ry
     estimated scf accuracy    <       0.00000056 Ry

     total magnetization       =     0.01 Bohr mag/cell
     absolute magnetization    =     0.01 Bohr mag/cell

     iteration # 31     ecut=    90.00 Ry     beta= 0.20
     Davidson diagonalization with overlap
     ethr =  1.56E-09,  avg # of iterations =  3.6

     negative rho (up, down):  2.069E-04 2.073E-04

     total cpu time spent up to now is      449.6 secs

     total energy              =    -518.62450212 Ry
     estimated scf accuracy    <       0.00000210 Ry

     total magnetization       =     0.00 Bohr mag/cell
     absolute magnetization    =     0.00 Bohr mag/cell

     iteration # 32     ecut=    90.00 Ry     beta= 0.20
     Davidson diagonalization with overlap
     ethr =  1.56E-09,  avg # of iterations =  3.7

     negative rho (up, down):  2.073E-04 2.073E-04

     total cpu time spent up to now is      460.0 secs

     total energy              =    -518.62450227 Ry
     estimated scf accuracy    <       0.00000025 Ry

     total magnetization       =     0.00 Bohr mag/cell
     absolute magnetization    =     0.00 Bohr mag/cell

     iteration # 33     ecut=    90.00 Ry     beta= 0.20
     Davidson diagonalization with overlap
     ethr =  7.83E-10,  avg # of iterations =  3.5

     negative rho (up, down):  2.074E-04 2.074E-04

     total cpu time spent up to now is      470.1 secs

     total energy              =    -518.62450248 Ry
     estimated scf accuracy    <       0.00000063 Ry

     total magnetization       =    -0.00 Bohr mag/cell
     absolute magnetization    =     0.00 Bohr mag/cell

     iteration # 34     ecut=    90.00 Ry     beta= 0.20
     Davidson diagonalization with overlap
     ethr =  7.83E-10,  avg # of iterations =  2.8

     negative rho (up, down):  2.074E-04 2.074E-04

     Magnetic moment per site:
     atom:    1    charge:   14.9517    magn:   -0.0001    constr:    0.0000
     atom:    2    charge:   10.3524    magn:   -0.0001    constr:    0.0000

     total cpu time spent up to now is      478.7 secs

     End of self-consistent calculation

     Number of k-points >= 100: set verbosity='high' to print the bands.

     the Fermi energy is    17.3788 ev

!    total energy              =    -518.62450257 Ry
     estimated scf accuracy    <          4.7E-09 Ry
     smearing contrib. (-TS)   =      -0.00281199 Ry
     internal energy E=F+TS    =    -518.62169058 Ry

     The total energy is F=E-TS. E is the sum of the following terms:
     one-electron contribution =    -280.85325266 Ry
     hartree contribution      =     158.21884965 Ry
     xc contribution           =     -57.98963465 Ry
     ewald contribution        =    -337.99765292 Ry

     total magnetization       =    -0.00 Bohr mag/cell
     absolute magnetization    =     0.00 Bohr mag/cell

     convergence has been achieved in  34 iterations

     negative rho (up, down):  2.074E-04 2.074E-04

     Forces acting on atoms (cartesian axes, Ry/au):

     atom    1 type  1   force =    -0.00000025   -0.00000007   -0.00000009
     atom    2 type  2   force =     0.00000025    0.00000007    0.00000009

     Total force =     0.000000     Total SCF correction =     0.000001
     SCF correction compared to forces is large: reduce conv_thr to get better values


     Computing stress (Cartesian axis) and pressure


     negative rho (up, down):  2.074E-04 2.074E-04
          total   stress  (Ry/bohr**3)                   (kbar)     P=      114.24
   0.00077667   0.00000003  -0.00000012          114.25        0.00       -0.02
   0.00000003   0.00077650   0.00000000            0.00      114.23        0.00
  -0.00000012   0.00000000   0.00077663           -0.02        0.00      114.25

     Energy error            =      1.3E+00
     Gradient error          =      2.5E-07
     Cell gradient error     =      7.8E-04


     number of scf cycles    =   2
     number of bfgs steps    =   1

     enthalpy old            =    -517.3334633462 Ry
     enthalpy new            =    -518.6245025706 Ry

     CASE: enthalpy_new < enthalpy_old

     new trust radius        =       0.0136463242 bohr
     new conv_thr            =            1.0E-10 Ry

     new unit-cell volume =    166.04462 a.u.^3 (    24.60527 Ang^3 )
     density =      7.47009 g/cm^3

CELL_PARAMETERS (alat=  6.75480571)
  -0.645834922  -0.000000556   0.645833897
  -0.000001969   0.645828689   0.645831372
  -0.645831767   0.645828060   0.000002599

ATOMIC_POSITIONS (alat)
Ni            0.6458303277        0.6458292751        0.6458287934
Cr            0.0000000630        0.0000000066        0.0000000164



     Writing output data file ./pwscf.save/
     NEW-OLD atomic charge density approx. for the potential

     Check: negative core charge=   -0.000009

     negative rho (up, down):  2.141E-04 2.141E-04
     extrapolated charge   32.45925, renormalised to   32.00000
     Generating pointlists ...

     total cpu time spent up to now is      482.4 secs

     Self-consistent Calculation

     iteration #  1     ecut=    90.00 Ry     beta= 0.20
     Davidson diagonalization with overlap
     ethr =  1.00E-06,  avg # of iterations =  7.2

     negative rho (up, down):  1.938E-04 1.938E-04

     total cpu time spent up to now is      501.3 secs

     total energy              =    -517.28825580 Ry
     estimated scf accuracy    <       3.31792682 Ry

     total magnetization       =    -0.00 Bohr mag/cell
     absolute magnetization    =     0.00 Bohr mag/cell

     iteration #  2     ecut=    90.00 Ry     beta= 0.20
     Davidson diagonalization with overlap
     ethr =  1.00E-02,  avg # of iterations =  2.5

     negative rho (up, down):  2.104E-04 2.103E-04

     total cpu time spent up to now is      509.4 secs

     total energy              =    -518.72376000 Ry
     estimated scf accuracy    <       5.85789641 Ry

     total magnetization       =    -0.00 Bohr mag/cell
     absolute magnetization    =     0.00 Bohr mag/cell

     iteration #  3     ecut=    90.00 Ry     beta= 0.20
     Davidson diagonalization with overlap
     ethr =  1.00E-02,  avg # of iterations =  1.0

     negative rho (up, down):  2.182E-04 2.182E-04

     total cpu time spent up to now is      516.0 secs

     total energy              =    -518.44216601 Ry
     estimated scf accuracy    <       2.25106866 Ry

     total magnetization       =    -0.00 Bohr mag/cell
     absolute magnetization    =     0.00 Bohr mag/cell

     iteration #  4     ecut=    90.00 Ry     beta= 0.20
     Davidson diagonalization with overlap
     ethr =  7.03E-03,  avg # of iterations =  1.6

     negative rho (up, down):  2.139E-04 2.139E-04

     total cpu time spent up to now is      523.0 secs

     total energy              =    -518.62151792 Ry
     estimated scf accuracy    <       0.03414941 Ry

     total magnetization       =    -0.00 Bohr mag/cell
     absolute magnetization    =     0.00 Bohr mag/cell

     iteration #  5     ecut=    90.00 Ry     beta= 0.20
     Davidson diagonalization with overlap
     ethr =  1.07E-04,  avg # of iterations =  2.0

     negative rho (up, down):  2.133E-04 2.133E-04

     total cpu time spent up to now is      531.1 secs

     total energy              =    -518.64170368 Ry
     estimated scf accuracy    <       0.23057891 Ry

     total magnetization       =    -0.00 Bohr mag/cell
     absolute magnetization    =     0.00 Bohr mag/cell

     iteration #  6     ecut=    90.00 Ry     beta= 0.20
     Davidson diagonalization with overlap
     ethr =  1.07E-04,  avg # of iterations =  1.0

     negative rho (up, down):  2.131E-04 2.131E-04

     total cpu time spent up to now is      537.7 secs

     total energy              =    -518.63942236 Ry
     estimated scf accuracy    <       0.19367260 Ry

     total magnetization       =    -0.00 Bohr mag/cell
     absolute magnetization    =     0.00 Bohr mag/cell

     iteration #  7     ecut=    90.00 Ry     beta= 0.20
     Davidson diagonalization with overlap
     ethr =  1.07E-04,  avg # of iterations =  1.0

     negative rho (up, down):  2.134E-04 2.134E-04

     total cpu time spent up to now is      544.4 secs

     total energy              =    -518.64275051 Ry
     estimated scf accuracy    <       0.16661583 Ry

     total magnetization       =    -0.00 Bohr mag/cell
     absolute magnetization    =     0.00 Bohr mag/cell

     iteration #  8     ecut=    90.00 Ry     beta= 0.20
     Davidson diagonalization with overlap
     ethr =  1.07E-04,  avg # of iterations =  1.0

     negative rho (up, down):  2.128E-04 2.127E-04

     total cpu time spent up to now is      550.9 secs

     total energy              =    -518.63921487 Ry
     estimated scf accuracy    <       0.20360081 Ry

     total magnetization       =    -0.00 Bohr mag/cell
     absolute magnetization    =     0.00 Bohr mag/cell

     iteration #  9     ecut=    90.00 Ry     beta= 0.20
     Davidson diagonalization with overlap
     ethr =  1.07E-04,  avg # of iterations =  1.0

     negative rho (up, down):  2.093E-04 2.093E-04

     total cpu time spent up to now is      557.6 secs

     total energy              =    -518.60756304 Ry
     estimated scf accuracy    <       0.16851685 Ry

     total magnetization       =    -0.00 Bohr mag/cell
     absolute magnetization    =     0.00 Bohr mag/cell

     iteration # 10     ecut=    90.00 Ry     beta= 0.20
     Davidson diagonalization with overlap
     ethr =  1.07E-04,  avg # of iterations =  2.6

     negative rho (up, down):  2.103E-04 2.103E-04

     total cpu time spent up to now is      566.1 secs

     total energy              =    -518.62577468 Ry
     estimated scf accuracy    <       0.02645687 Ry

     total magnetization       =    -0.00 Bohr mag/cell
     absolute magnetization    =     0.00 Bohr mag/cell

     iteration # 11     ecut=    90.00 Ry     beta= 0.20
     Davidson diagonalization with overlap
     ethr =  8.27E-05,  avg # of iterations =  1.0

     negative rho (up, down):  2.102E-04 2.102E-04

     total cpu time spent up to now is      572.8 secs

     total energy              =    -518.62646677 Ry
     estimated scf accuracy    <       0.00343369 Ry

     total magnetization       =    -0.00 Bohr mag/cell
     absolute magnetization    =     0.00 Bohr mag/cell

     iteration # 12     ecut=    90.00 Ry     beta= 0.20
     Davidson diagonalization with overlap
     ethr =  1.07E-05,  avg # of iterations =  1.0

     negative rho (up, down):  2.107E-04 2.107E-04

     total cpu time spent up to now is      579.5 secs

     total energy              =    -518.62633892 Ry
     estimated scf accuracy    <       0.00376994 Ry

     total magnetization       =    -0.00 Bohr mag/cell
     absolute magnetization    =     0.00 Bohr mag/cell

     iteration # 13     ecut=    90.00 Ry     beta= 0.20
     Davidson diagonalization with overlap
     ethr =  1.07E-05,  avg # of iterations =  1.0

     negative rho (up, down):  2.110E-04 2.109E-04

     total cpu time spent up to now is      586.1 secs

     total energy              =    -518.62618674 Ry
     estimated scf accuracy    <       0.00205684 Ry

     total magnetization       =    -0.00 Bohr mag/cell
     absolute magnetization    =     0.00 Bohr mag/cell

     iteration # 14     ecut=    90.00 Ry     beta= 0.20
     Davidson diagonalization with overlap
     ethr =  6.43E-06,  avg # of iterations =  1.0

     negative rho (up, down):  2.105E-04 2.105E-04

     total cpu time spent up to now is      592.8 secs

     total energy              =    -518.62623935 Ry
     estimated scf accuracy    <       0.00018552 Ry

     total magnetization       =    -0.00 Bohr mag/cell
     absolute magnetization    =     0.00 Bohr mag/cell

     iteration # 15     ecut=    90.00 Ry     beta= 0.20
     Davidson diagonalization with overlap
     ethr =  5.80E-07,  avg # of iterations =  1.3

     negative rho (up, down):  2.103E-04 2.102E-04

     total cpu time spent up to now is      599.8 secs

     total energy              =    -518.62624555 Ry
     estimated scf accuracy    <       0.00007016 Ry

     total magnetization       =    -0.00 Bohr mag/cell
     absolute magnetization    =     0.00 Bohr mag/cell

     iteration # 16     ecut=    90.00 Ry     beta= 0.20
     Davidson diagonalization with overlap
     ethr =  2.19E-07,  avg # of iterations =  1.0

     negative rho (up, down):  2.104E-04 2.103E-04

     total cpu time spent up to now is      606.5 secs

     total energy              =    -518.62624731 Ry
     estimated scf accuracy    <       0.00020125 Ry

     total magnetization       =    -0.00 Bohr mag/cell
     absolute magnetization    =     0.00 Bohr mag/cell

     iteration # 17     ecut=    90.00 Ry     beta= 0.20
     Davidson diagonalization with overlap
     ethr =  2.19E-07,  avg # of iterations =  1.0

     negative rho (up, down):  2.104E-04 2.104E-04

     total cpu time spent up to now is      613.1 secs

     total energy              =    -518.62622585 Ry
     estimated scf accuracy    <       0.00017619 Ry

     total magnetization       =    -0.00 Bohr mag/cell
     absolute magnetization    =     0.00 Bohr mag/cell

     iteration # 18     ecut=    90.00 Ry     beta= 0.20
     Davidson diagonalization with overlap
     ethr =  2.19E-07,  avg # of iterations =  1.6

     negative rho (up, down):  2.104E-04 2.103E-04

     total cpu time spent up to now is      620.1 secs

     total energy              =    -518.62623739 Ry
     estimated scf accuracy    <       0.00000251 Ry

     total magnetization       =    -0.00 Bohr mag/cell
     absolute magnetization    =     0.00 Bohr mag/cell

     iteration # 19     ecut=    90.00 Ry     beta= 0.20
     Davidson diagonalization with overlap
     ethr =  7.85E-09,  avg # of iterations =  1.9

     negative rho (up, down):  2.104E-04 2.103E-04

     total cpu time spent up to now is      627.6 secs

     total energy              =    -518.62623743 Ry
     estimated scf accuracy    <       0.00000089 Ry

     total magnetization       =    -0.00 Bohr mag/cell
     absolute magnetization    =     0.00 Bohr mag/cell

     iteration # 20     ecut=    90.00 Ry     beta= 0.20
     Davidson diagonalization with overlap
     ethr =  2.78E-09,  avg # of iterations =  1.0

     negative rho (up, down):  2.104E-04 2.103E-04

     total cpu time spent up to now is      634.3 secs

     total energy              =    -518.62623741 Ry
     estimated scf accuracy    <       0.00000053 Ry

     total magnetization       =    -0.00 Bohr mag/cell
     absolute magnetization    =     0.00 Bohr mag/cell

     iteration # 21     ecut=    90.00 Ry     beta= 0.20
     Davidson diagonalization with overlap
     ethr =  1.66E-09,  avg # of iterations =  1.2

     negative rho (up, down):  2.104E-04 2.103E-04

     total cpu time spent up to now is      641.2 secs

     total energy              =    -518.62623742 Ry
     estimated scf accuracy    <       0.00000076 Ry

     total magnetization       =    -0.00 Bohr mag/cell
     absolute magnetization    =     0.00 Bohr mag/cell

     iteration # 22     ecut=    90.00 Ry     beta= 0.20
     Davidson diagonalization with overlap
     ethr =  1.66E-09,  avg # of iterations =  1.0

     negative rho (up, down):  2.105E-04 2.103E-04

     total cpu time spent up to now is      647.8 secs

     total energy              =    -518.62623724 Ry
     estimated scf accuracy    <       0.00000070 Ry

     total magnetization       =    -0.00 Bohr mag/cell
     absolute magnetization    =     0.00 Bohr mag/cell

     iteration # 23     ecut=    90.00 Ry     beta= 0.20
     Davidson diagonalization with overlap
     ethr =  1.66E-09,  avg # of iterations =  1.1

     negative rho (up, down):  2.104E-04 2.103E-04

     total cpu time spent up to now is      654.5 secs

     total energy              =    -518.62623729 Ry
     estimated scf accuracy    <       0.00000002 Ry

     total magnetization       =    -0.00 Bohr mag/cell
     absolute magnetization    =     0.00 Bohr mag/cell

     iteration # 24     ecut=    90.00 Ry     beta= 0.20
     Davidson diagonalization with overlap
     ethr =  6.09E-11,  avg # of iterations =  2.1

     negative rho (up, down):  2.104E-04 2.103E-04

     total cpu time spent up to now is      662.4 secs

     total energy              =    -518.62623729 Ry
     estimated scf accuracy    <          8.4E-09 Ry

     total magnetization       =    -0.00 Bohr mag/cell
     absolute magnetization    =     0.00 Bohr mag/cell

     iteration # 25     ecut=    90.00 Ry     beta= 0.20
     Davidson diagonalization with overlap
     ethr =  2.63E-11,  avg # of iterations =  1.0

     negative rho (up, down):  2.104E-04 2.103E-04

     total cpu time spent up to now is      669.0 secs

     total energy              =    -518.62623728 Ry
     estimated scf accuracy    <          2.7E-09 Ry

     total magnetization       =    -0.00 Bohr mag/cell
     absolute magnetization    =     0.00 Bohr mag/cell

     iteration # 26     ecut=    90.00 Ry     beta= 0.20
     Davidson diagonalization with overlap
     ethr =  8.51E-12,  avg # of iterations =  2.7

     negative rho (up, down):  2.104E-04 2.104E-04

     total cpu time spent up to now is      678.8 secs

     total energy              =    -518.62623728 Ry
     estimated scf accuracy    <       0.00000002 Ry

     total magnetization       =    -0.00 Bohr mag/cell
     absolute magnetization    =     0.00 Bohr mag/cell

     iteration # 27     ecut=    90.00 Ry     beta= 0.20
     Davidson diagonalization with overlap
     ethr =  8.51E-12,  avg # of iterations =  2.8

     negative rho (up, down):  2.104E-04 2.104E-04

     total cpu time spent up to now is      688.0 secs

     total energy              =    -518.62623728 Ry
     estimated scf accuracy    <          7.3E-09 Ry

     total magnetization       =    -0.00 Bohr mag/cell
     absolute magnetization    =     0.00 Bohr mag/cell

     iteration # 28     ecut=    90.00 Ry     beta= 0.20
     Davidson diagonalization with overlap
     ethr =  8.51E-12,  avg # of iterations =  2.0

     negative rho (up, down):  2.103E-04 2.103E-04

     total cpu time spent up to now is      696.0 secs

     total energy              =    -518.62623728 Ry
     estimated scf accuracy    <          7.1E-10 Ry

     total magnetization       =    -0.00 Bohr mag/cell
     absolute magnetization    =     0.00 Bohr mag/cell

     iteration # 29     ecut=    90.00 Ry     beta= 0.20
     Davidson diagonalization with overlap
     ethr =  2.23E-12,  avg # of iterations =  2.1

     negative rho (up, down):  2.103E-04 2.103E-04

     total cpu time spent up to now is      704.1 secs

     total energy              =    -518.62623728 Ry
     estimated scf accuracy    <          1.2E-09 Ry

     total magnetization       =     0.00 Bohr mag/cell
     absolute magnetization    =     0.00 Bohr mag/cell

     iteration # 30     ecut=    90.00 Ry     beta= 0.20
     Davidson diagonalization with overlap
     ethr =  2.23E-12,  avg # of iterations =  1.0

     negative rho (up, down):  2.103E-04 2.103E-04

     Magnetic moment per site:
     atom:    1    charge:   14.9478    magn:    0.0000    constr:    0.0000
     atom:    2    charge:   10.3481    magn:    0.0000    constr:    0.0000

     total cpu time spent up to now is      710.7 secs

     End of self-consistent calculation

     Number of k-points >= 100: set verbosity='high' to print the bands.

     the Fermi energy is    17.0361 ev

!    total energy              =    -518.62623728 Ry
     estimated scf accuracy    <          8.7E-12 Ry
     smearing contrib. (-TS)   =      -0.00286510 Ry
     internal energy E=F+TS    =    -518.62337219 Ry

     The total energy is F=E-TS. E is the sum of the following terms:
     one-electron contribution =    -283.73877879 Ry
     hartree contribution      =     159.28415975 Ry
     xc contribution           =     -57.96479099 Ry
     ewald contribution        =    -336.20396215 Ry

     total magnetization       =     0.00 Bohr mag/cell
     absolute magnetization    =     0.00 Bohr mag/cell

     convergence has been achieved in  30 iterations

     negative rho (up, down):  2.103E-04 2.103E-04

     Forces acting on atoms (cartesian axes, Ry/au):

     atom    1 type  1   force =     0.00000006    0.00000001    0.00000001
     atom    2 type  2   force =    -0.00000006   -0.00000001   -0.00000001

     Total force =     0.000000     Total SCF correction =     0.000000
     SCF correction compared to forces is large: reduce conv_thr to get better values


     Computing stress (Cartesian axis) and pressure


     negative rho (up, down):  2.103E-04 2.103E-04
          total   stress  (Ry/bohr**3)                   (kbar)     P=       79.99
   0.00054372   0.00000000  -0.00000002           79.98        0.00       -0.00
   0.00000000   0.00054380   0.00000000            0.00       80.00        0.00
  -0.00000002   0.00000000   0.00054374           -0.00        0.00       79.99

     Energy error            =      1.7E-03
     Gradient error          =      5.9E-08
     Cell gradient error     =      5.4E-04


     number of scf cycles    =   3
     number of bfgs steps    =   2

     enthalpy old            =    -518.6245025706 Ry
     enthalpy new            =    -518.6262372840 Ry

     CASE: enthalpy_new < enthalpy_old

     new trust radius        =       0.0150509101 bohr
     new conv_thr            =            1.0E-10 Ry

     new unit-cell volume =    168.96964 a.u.^3 (    25.03872 Ang^3 )
     density =      7.34077 g/cm^3

CELL_PARAMETERS (alat=  6.75480571)
  -0.649604553  -0.000000623   0.649604298
  -0.000002389   0.649600411   0.649601286
  -0.649600809   0.649599680   0.000003120

ATOMIC_POSITIONS (alat)
Ni            0.6495990551        0.6496010823        0.6495982079
Cr            0.0000000421        0.0000000060        0.0000000120



[...]
     c_bands:  1 eigenvalues not converged
     c_bands:  1 eigenvalues not converged
     c_bands:  1 eigenvalues not converged
     c_bands:  1 eigenvalues not converged
     c_bands:  1 eigenvalues not converged
     c_bands:  2 eigenvalues not converged
     c_bands:  1 eigenvalues not converged
     c_bands:  1 eigenvalues not converged
     c_bands:  1 eigenvalues not converged
     c_bands:  1 eigenvalues not converged
     c_bands:  1 eigenvalues not converged
     c_bands:  1 eigenvalues not converged
     c_bands:  1 eigenvalues not converged
     c_bands:  2 eigenvalues not converged
     c_bands:  1 eigenvalues not converged
     c_bands:  1 eigenvalues not converged
     c_bands:  1 eigenvalues not converged
     c_bands:  1 eigenvalues not converged
     c_bands:  1 eigenvalues not converged
     c_bands:  1 eigenvalues not converged
     c_bands:  1 eigenvalues not converged
     c_bands:  1 eigenvalues not converged
     c_bands:  1 eigenvalues not converged
     c_bands:  1 eigenvalues not converged
     c_bands:  1 eigenvalues not converged
     c_bands:  3 eigenvalues not converged
     c_bands:  1 eigenvalues not converged
     c_bands:  1 eigenvalues not converged
     c_bands:  1 eigenvalues not converged
     c_bands:  2 eigenvalues not converged
     c_bands:  2 eigenvalues not converged
     c_bands:  1 eigenvalues not converged
     c_bands:  1 eigenvalues not converged
     ethr =  1.00E-06,  avg # of iterations = 16.5

     negative rho (up, down):  4.442E-04 4.442E-04

     total cpu time spent up to now is     1636.3 secs

     total energy              =    -511.10902089 Ry
     estimated scf accuracy    <      51.21085223 Ry

     total magnetization       =     0.00 Bohr mag/cell
     absolute magnetization    =     0.00 Bohr mag/cell

     iteration #  2     ecut=    90.00 Ry     beta= 0.20
     Davidson diagonalization with overlap
     ethr =  1.00E-02,  avg # of iterations =  4.1

     negative rho (up, down):  6.756E-04 6.756E-04

     total cpu time spent up to now is     1656.2 secs

     total energy              =    -518.69074414 Ry
     estimated scf accuracy    <      12.57999008 Ry

     total magnetization       =    -0.00 Bohr mag/cell
     absolute magnetization    =     0.00 Bohr mag/cell

     iteration #  3     ecut=    90.00 Ry     beta= 0.20
     Davidson diagonalization with overlap
     ethr =  1.00E-02,  avg # of iterations =  3.0

     negative rho (up, down):  1.586E-03 1.586E-03

     total cpu time spent up to now is     1670.8 secs

     total energy              =    -516.56128060 Ry
     estimated scf accuracy    <       3.77662975 Ry

     total magnetization       =     0.00 Bohr mag/cell
     absolute magnetization    =     0.00 Bohr mag/cell

     iteration #  4     ecut=    90.00 Ry     beta= 0.20
     Davidson diagonalization with overlap
     ethr =  1.00E-02,  avg # of iterations =  3.7

     negative rho (up, down):  5.786E-04 5.786E-04

     total cpu time spent up to now is     1689.1 secs

     total energy              =    -513.63538625 Ry
     estimated scf accuracy    <      56.04659780 Ry

     total magnetization       =     0.00 Bohr mag/cell
     absolute magnetization    =     0.00 Bohr mag/cell

     iteration #  5     ecut=    90.00 Ry     beta= 0.20
     Davidson diagonalization with overlap
     ethr =  1.00E-02,  avg # of iterations =  3.6

     negative rho (up, down):  6.737E-04 6.737E-04

     total cpu time spent up to now is     1707.3 secs

     total energy              =    -518.22414012 Ry
     estimated scf accuracy    <       3.05103764 Ry

     total magnetization       =     0.00 Bohr mag/cell
     absolute magnetization    =     0.00 Bohr mag/cell

     iteration #  6     ecut=    90.00 Ry     beta= 0.20
     Davidson diagonalization with overlap
     ethr =  9.53E-03,  avg # of iterations =  1.9

     negative rho (up, down):  5.902E-04 5.902E-04

     total cpu time spent up to now is     1720.2 secs

     total energy              =    -518.46259984 Ry
     estimated scf accuracy    <       1.85160935 Ry

     total magnetization       =    -0.00 Bohr mag/cell
     absolute magnetization    =     0.00 Bohr mag/cell

     iteration #  7     ecut=    90.00 Ry     beta= 0.20
     Davidson diagonalization with overlap
     ethr =  5.79E-03,  avg # of iterations =  1.0

     negative rho (up, down):  6.914E-04 6.914E-04

     total cpu time spent up to now is     1732.0 secs

     total energy              =    -518.59968178 Ry
     estimated scf accuracy    <       0.20401947 Ry

     total magnetization       =     0.00 Bohr mag/cell
     absolute magnetization    =     0.00 Bohr mag/cell

     iteration #  8     ecut=    90.00 Ry     beta= 0.20
     Davidson diagonalization with overlap
     ethr =  6.38E-04,  avg # of iterations =  2.0

     negative rho (up, down):  3.640E-04 3.641E-04

     total cpu time spent up to now is     1745.1 secs

     total energy              =    -518.58899246 Ry
     estimated scf accuracy    <       0.36372013 Ry

     total magnetization       =    -0.00 Bohr mag/cell
     absolute magnetization    =     0.00 Bohr mag/cell

     iteration #  9     ecut=    90.00 Ry     beta= 0.20
     Davidson diagonalization with overlap
     ethr =  6.38E-04,  avg # of iterations =  1.2

     negative rho (up, down):  4.386E-04 4.387E-04

     total cpu time spent up to now is     1757.1 secs

     total energy              =    -518.61644456 Ry
     estimated scf accuracy    <       0.13349509 Ry

     total magnetization       =     0.00 Bohr mag/cell
     absolute magnetization    =     0.00 Bohr mag/cell

     iteration # 10     ecut=    90.00 Ry     beta= 0.20
     Davidson diagonalization with overlap
     ethr =  4.17E-04,  avg # of iterations =  1.0

     negative rho (up, down):  4.525E-04 4.526E-04

     total cpu time spent up to now is     1768.9 secs

     total energy              =    -518.63118266 Ry
     estimated scf accuracy    <       0.02333488 Ry

     total magnetization       =     0.00 Bohr mag/cell
     absolute magnetization    =     0.00 Bohr mag/cell

     iteration # 11     ecut=    90.00 Ry     beta= 0.20
     Davidson diagonalization with overlap
     ethr =  7.29E-05,  avg # of iterations =  1.1

     negative rho (up, down):  4.299E-04 4.299E-04

     total cpu time spent up to now is     1780.7 secs

     total energy              =    -518.62622936 Ry
     estimated scf accuracy    <       0.04277384 Ry

     total magnetization       =     0.00 Bohr mag/cell
     absolute magnetization    =     0.00 Bohr mag/cell

     iteration # 12     ecut=    90.00 Ry     beta= 0.20
     Davidson diagonalization with overlap
     ethr =  7.29E-05,  avg # of iterations =  1.0

     negative rho (up, down):  4.529E-04 4.531E-04

     total cpu time spent up to now is     1792.4 secs

     total energy              =    -518.62820780 Ry
     estimated scf accuracy    <       0.00350872 Ry

     total magnetization       =     0.00 Bohr mag/cell
     absolute magnetization    =     0.00 Bohr mag/cell

     iteration # 13     ecut=    90.00 Ry     beta= 0.20
     Davidson diagonalization with overlap
     ethr =  1.10E-05,  avg # of iterations =  1.9

     negative rho (up, down):  4.662E-04 4.666E-04

     total cpu time spent up to now is     1806.0 secs

     total energy              =    -518.62984413 Ry
     estimated scf accuracy    <       0.01844107 Ry

     total magnetization       =     0.00 Bohr mag/cell
     absolute magnetization    =     0.00 Bohr mag/cell

     iteration # 14     ecut=    90.00 Ry     beta= 0.20
     Davidson diagonalization with overlap
     ethr =  1.10E-05,  avg # of iterations =  1.0

     negative rho (up, down):  4.579E-04 4.584E-04

     total cpu time spent up to now is     1817.7 secs

     total energy              =    -518.62778868 Ry
     estimated scf accuracy    <       0.01828349 Ry

     total magnetization       =     0.00 Bohr mag/cell
     absolute magnetization    =     0.00 Bohr mag/cell

     iteration # 15     ecut=    90.00 Ry     beta= 0.20
     Davidson diagonalization with overlap
     ethr =  1.10E-05,  avg # of iterations =  1.9

     negative rho (up, down):  4.585E-04 4.591E-04

     total cpu time spent up to now is     1831.3 secs

     total energy              =    -518.62891611 Ry
     estimated scf accuracy    <       0.00013491 Ry

     total magnetization       =     0.00 Bohr mag/cell
     absolute magnetization    =     0.00 Bohr mag/cell

     iteration # 16     ecut=    90.00 Ry     beta= 0.20
     Davidson diagonalization with overlap
     ethr =  4.22E-07,  avg # of iterations =  2.2

     negative rho (up, down):  4.586E-04 4.591E-04

     total cpu time spent up to now is     1845.1 secs

     total energy              =    -518.62893256 Ry
     estimated scf accuracy    <       0.00000867 Ry

     total magnetization       =     0.00 Bohr mag/cell
     absolute magnetization    =     0.00 Bohr mag/cell

     iteration # 17     ecut=    90.00 Ry     beta= 0.20
     Davidson diagonalization with overlap
     ethr =  2.71E-08,  avg # of iterations =  2.2

     negative rho (up, down):  4.600E-04 4.609E-04

     total cpu time spent up to now is     1858.9 secs

     total energy              =    -518.62893183 Ry
     estimated scf accuracy    <       0.00000426 Ry

     total magnetization       =     0.00 Bohr mag/cell
     absolute magnetization    =     0.00 Bohr mag/cell

     iteration # 18     ecut=    90.00 Ry     beta= 0.20
     Davidson diagonalization with overlap
     ethr =  1.33E-08,  avg # of iterations =  3.1

     negative rho (up, down):  4.598E-04 4.607E-04

     total cpu time spent up to now is     1874.9 secs

     total energy              =    -518.62893198 Ry
     estimated scf accuracy    <       0.00002304 Ry

     total magnetization       =     0.00 Bohr mag/cell
     absolute magnetization    =     0.00 Bohr mag/cell

     iteration # 19     ecut=    90.00 Ry     beta= 0.20
     Davidson diagonalization with overlap
     ethr =  1.33E-08,  avg # of iterations =  1.6

     negative rho (up, down):  4.596E-04 4.607E-04

     total cpu time spent up to now is     1887.8 secs

     total energy              =    -518.62893288 Ry
     estimated scf accuracy    <       0.00000116 Ry

     total magnetization       =     0.00 Bohr mag/cell
     absolute magnetization    =     0.00 Bohr mag/cell

     iteration # 20     ecut=    90.00 Ry     beta= 0.20
     Davidson diagonalization with overlap
     ethr =  3.61E-09,  avg # of iterations =  1.3

     negative rho (up, down):  4.593E-04 4.605E-04

     total cpu time spent up to now is     1900.2 secs

     total energy              =    -518.62893264 Ry
     estimated scf accuracy    <       0.00000233 Ry

     total magnetization       =     0.00 Bohr mag/cell
     absolute magnetization    =     0.00 Bohr mag/cell

     iteration # 21     ecut=    90.00 Ry     beta= 0.20
     Davidson diagonalization with overlap
     ethr =  3.61E-09,  avg # of iterations =  1.7

     negative rho (up, down):  4.594E-04 4.604E-04

     total cpu time spent up to now is     1913.3 secs

     total energy              =    -518.62893275 Ry
     estimated scf accuracy    <       0.00000007 Ry

     total magnetization       =     0.00 Bohr mag/cell
     absolute magnetization    =     0.00 Bohr mag/cell

     iteration # 22     ecut=    90.00 Ry     beta= 0.20
     Davidson diagonalization with overlap
     ethr =  2.34E-10,  avg # of iterations =  2.7

     negative rho (up, down):  4.598E-04 4.602E-04

     total cpu time spent up to now is     1927.9 secs

     total energy              =    -518.62893275 Ry
     estimated scf accuracy    <       0.00000028 Ry

     total magnetization       =     0.00 Bohr mag/cell
     absolute magnetization    =     0.00 Bohr mag/cell

     iteration # 23     ecut=    90.00 Ry     beta= 0.20
     Davidson diagonalization with overlap
     ethr =  2.34E-10,  avg # of iterations =  1.0

     negative rho (up, down):  4.600E-04 4.602E-04

     total cpu time spent up to now is     1939.8 secs

     total energy              =    -518.62893276 Ry
     estimated scf accuracy    <       0.00000013 Ry

     total magnetization       =     0.00 Bohr mag/cell
     absolute magnetization    =     0.00 Bohr mag/cell

     iteration # 24     ecut=    90.00 Ry     beta= 0.20
     Davidson diagonalization with overlap
     ethr =  2.34E-10,  avg # of iterations =  1.0

     negative rho (up, down):  4.599E-04 4.601E-04

     total cpu time spent up to now is     1952.0 secs

     total energy              =    -518.62893275 Ry
     estimated scf accuracy    <       0.00000003 Ry

     total magnetization       =     0.00 Bohr mag/cell
     absolute magnetization    =     0.00 Bohr mag/cell

     iteration # 25     ecut=    90.00 Ry     beta= 0.20
     Davidson diagonalization with overlap
     ethr =  7.88E-11,  avg # of iterations =  2.1

     negative rho (up, down):  4.597E-04 4.598E-04

     total cpu time spent up to now is     1966.3 secs

     total energy              =    -518.62893276 Ry
     estimated scf accuracy    <       0.00000005 Ry

     total magnetization       =     0.00 Bohr mag/cell
     absolute magnetization    =     0.00 Bohr mag/cell

     iteration # 26     ecut=    90.00 Ry     beta= 0.20
     Davidson diagonalization with overlap
     ethr =  7.88E-11,  avg # of iterations =  1.5

     negative rho (up, down):  4.597E-04 4.597E-04

     total cpu time spent up to now is     1979.1 secs

     total energy              =    -518.62893276 Ry
     estimated scf accuracy    <          3.9E-09 Ry

     total magnetization       =     0.00 Bohr mag/cell
     absolute magnetization    =     0.00 Bohr mag/cell

     iteration # 27     ecut=    90.00 Ry     beta= 0.20
     Davidson diagonalization with overlap
     ethr =  1.23E-11,  avg # of iterations =  1.5

     negative rho (up, down):  4.597E-04 4.597E-04

     total cpu time spent up to now is     1991.8 secs

     total energy              =    -518.62893276 Ry
     estimated scf accuracy    <          3.8E-09 Ry

     total magnetization       =    -0.00 Bohr mag/cell
     absolute magnetization    =     0.00 Bohr mag/cell

     iteration # 28     ecut=    90.00 Ry     beta= 0.20
     Davidson diagonalization with overlap
     ethr =  1.19E-11,  avg # of iterations =  1.3

     negative rho (up, down):  4.597E-04 4.597E-04

     Magnetic moment per site:
     atom:    1    charge:   14.9382    magn:   -0.0000    constr:    0.0000
     atom:    2    charge:   10.3384    magn:    0.0000    constr:    0.0000

     total cpu time spent up to now is     2004.2 secs

     End of self-consistent calculation

     Number of k-points >= 100: set verbosity='high' to print the bands.

     the Fermi energy is    16.1644 ev

!    total energy              =    -518.62893276 Ry
     estimated scf accuracy    <          2.0E-11 Ry
     smearing contrib. (-TS)   =      -0.00301565 Ry
     internal energy E=F+TS    =    -518.62591712 Ry

     The total energy is F=E-TS. E is the sum of the following terms:
     one-electron contribution =    -291.23723480 Ry
     hartree contribution      =     162.07287104 Ry
     xc contribution           =     -57.90247729 Ry
     ewald contribution        =    -331.55907607 Ry

     total magnetization       =     0.00 Bohr mag/cell
     absolute magnetization    =     0.00 Bohr mag/cell

     convergence has been achieved in  28 iterations

     negative rho (up, down):  4.597E-04 4.597E-04

     Forces acting on atoms (cartesian axes, Ry/au):

     atom    1 type  1   force =     0.00000004    0.00000002   -0.00000001
     atom    2 type  2   force =    -0.00000004   -0.00000002    0.00000001

     Total force =     0.000000     Total SCF correction =     0.000000
     SCF correction compared to forces is large: reduce conv_thr to get better values


     Computing stress (Cartesian axis) and pressure


     negative rho (up, down):  4.597E-04 4.597E-04
          total   stress  (Ry/bohr**3)                   (kbar)     P=        0.46
   0.00000317   0.00000000  -0.00000003            0.47        0.00       -0.00
   0.00000000   0.00000314   0.00000000            0.00        0.46        0.00
  -0.00000003   0.00000000   0.00000315           -0.00        0.00        0.46


     init_run     :      9.17s CPU      9.57s WALL (       2 calls)
     electrons    :   1894.91s CPU   1972.46s WALL (       7 calls)
     update_pot   :      1.83s CPU      1.85s WALL (       5 calls)
     forces       :      7.58s CPU      7.74s WALL (       7 calls)
     stress       :     16.34s CPU     16.46s WALL (       7 calls)

     Called by init_run:
     wfcinit      :      7.53s CPU      7.82s WALL (       2 calls)
     potinit      :      0.40s CPU      0.41s WALL (       2 calls)
     hinit0       :      0.97s CPU      1.01s WALL (       2 calls)

     Called by electrons:
     c_bands      :   1597.28s CPU   1661.47s WALL (     220 calls)
     sum_band     :    270.93s CPU    283.24s WALL (     220 calls)
     v_of_rho     :      7.44s CPU      8.05s WALL (     227 calls)
     newd         :     18.67s CPU     18.92s WALL (     227 calls)
     mix_rho      :      0.63s CPU      0.77s WALL (     220 calls)

     Called by c_bands:
     init_us_2    :     21.48s CPU     22.43s WALL (  459648 calls)
     cegterg      :   1535.21s CPU   1597.84s WALL (  221760 calls)

     Called by *egterg:
     cdiaghg      :    238.11s CPU    245.70s WALL (  673942 calls)
     h_psi        :   1001.33s CPU   1045.43s WALL (  680998 calls)
     s_psi        :     50.53s CPU     53.06s WALL (  680998 calls)
     g_psi        :      3.41s CPU      3.51s WALL (  457222 calls)

     Called by h_psi:
     h_psi:calbec :     68.78s CPU     72.42s WALL (  680998 calls)
     vloc_psi     :    879.73s CPU    917.64s WALL (  680998 calls)
     add_vuspsi   :     49.09s CPU     51.77s WALL (  680998 calls)

     General routines
     calbec       :     98.98s CPU    104.21s WALL (  938038 calls)
     fft          :      3.28s CPU      3.93s WALL (    5946 calls)
     ffts         :      0.08s CPU      0.09s WALL (     894 calls)
     fftw         :    983.54s CPU   1027.44s WALL (25557182 calls)
     interpolate  :      0.30s CPU      0.34s WALL (     454 calls)

     Parallel routines
     fft_scatt_xy :    118.71s CPU    123.57s WALL (25564022 calls)
     fft_scatt_yz :    358.49s CPU    375.59s WALL (25564022 calls)

     PWSCF        :  32m11.23s CPU  33m30.50s WALL


   This run was terminated on:  19:53:30   8Dec2021            

=------------------------------------------------------------------------------=
   JOB DONE.
=------------------------------------------------------------------------------=
Note: The following floating-point exceptions are signalling: IEEE_UNDERFLOW_FLAG IEEE_DENORMAL
Note: The following floating-point exceptions are signalling: IEEE_UNDERFLOW_FLAG IEEE_DENORMAL
Note: The following floating-point exceptions are signalling: IEEE_UNDERFLOW_FLAG IEEE_DENORMAL
Note: The following floating-point exceptions are signalling: IEEE_UNDERFLOW_FLAG IEEE_DENORMAL
Note: The following floating-point exceptions are signalling: IEEE_UNDERFLOW_FLAG IEEE_DENORMAL
Note: The following floating-point exceptions are signalling: IEEE_UNDERFLOW_FLAG IEEE_DENORMAL
Note: The following floating-point exceptions are signalling: IEEE_UNDERFLOW_FLAG IEEE_DENORMAL
Note: The following floating-point exceptions are signalling: IEEE_UNDERFLOW_FLAG IEEE_DENORMAL
Note: The following floating-point exceptions are signalling: IEEE_UNDERFLOW_FLAG IEEE_DENORMAL
Note: The following floating-point exceptions are signalling: IEEE_UNDERFLOW_FLAG IEEE_DENORMAL
Note: The following floating-point exceptions are signalling: IEEE_UNDERFLOW_FLAG IEEE_DENORMAL
Note: The following floating-point exceptions are signalling: IEEE_UNDERFLOW_FLAG IEEE_DENORMAL
