 # File generated with Atomsk by kevin on 2022-03-20 17:48:11
 
           8  atoms
           2  atom types
 
      0.000000000000       4.550800000000  xlo xhi
      0.000000000000       4.550800000000  ylo yhi
      0.000000000000       4.528046000000  zlo zhi
 
Masses
 
            1   0.00000000              # XX
            2   0.00000000              # XX
 
Atoms # atomic
 
         1    3        0.009313641257      -0.008351730310      -0.005530654162
         2    4        2.268425346206       2.283314439565       2.266175826581
         3    3        0.009313641257       2.267048269690       2.258492345838
         4    4        2.268425346206       0.007914439565       0.002152826581
         5    3        2.284713641257       2.267048269690      -0.005530654162
         6    4        0.009313641257      -0.008351730310       2.258492345838
         7    3        2.284713641257      -0.008351730310       2.258492345838
         8    4        0.009313641257       2.267048269690      -0.005530654162
