 # File generated with Atomsk by kevin on 2022-03-20 17:48:11
 
           8  atoms
           2  atom types
 
      0.000000000000       4.550800000000  xlo xhi
      0.000000000000       4.550800000000  ylo yhi
      0.000000000000       4.550800000000  zlo zhi
     -0.022754000000       0.000000000000       0.000000000000  xy xz yz
 
Masses
 
            1   0.00000000              # XX
            2   0.00000000              # XX
 
Atoms # atomic
 
         1    3       -0.003280682216       0.004918130406       0.006975091206
         2    4        2.257074879491       2.275330083262       2.283014848163
         3    3       -0.014657682216       2.280318130406       2.282375091206
         4    4        2.268451879491      -0.000069916738       0.007614848163
         5    3        2.260742317784       2.280318130406       0.006975091206
         6    4       -0.003280682216       0.004918130406       2.282375091206
         7    3        2.272119317784       0.004918130406       2.282375091206
         8    4       -0.014657682216       2.280318130406       0.006975091206
