 # File generated with Atomsk by kevin on 2022-03-20 17:48:11
 
           8  atoms
           2  atom types
 
      0.000000000000       4.550800000000  xlo xhi
      0.000000000000       4.550800000000  ylo yhi
      0.000000000000       4.550800000000  zlo zhi
      0.000000000000       0.000000000000      -0.022754000000  xy xz yz
 
Masses
 
            1   0.00000000              # XX
            2   0.00000000              # XX
 
Atoms # atomic
 
         1    3        0.001111655895      -0.002936325936       0.006097613973
         2    4        2.269050079902       2.262907711095       2.274879018940
         3    3        0.001111655895       2.261086674064       2.281497613973
         4    4        2.269050079902      -0.001115288905      -0.000520981060
         5    3        2.276511655895       2.272463674064       0.006097613973
         6    4        0.001111655895      -0.014313325936       2.281497613973
         7    3        2.276511655895      -0.014313325936       2.281497613973
         8    4        0.001111655895       2.272463674064       0.006097613973
