 # File generated with Atomsk by kevin on 2022-03-20 17:48:11
 
           8  atoms
           2  atom types
 
      0.000000000000       4.550800000000  xlo xhi
      0.000000000000       4.528046000000  ylo yhi
      0.000000000000       4.550800000000  zlo zhi
 
Masses
 
            1   0.00000000              # XX
            2   0.00000000              # XX
 
Atoms # atomic
 
         1    3       -0.002845423001      -0.005320679288       0.001011424288
         2    4        2.269977415256       2.266030558531       2.265773577236
         3    3       -0.002845423001       2.258702320712       2.276411424288
         4    4        2.269977415256       0.002007558531      -0.009626422764
         5    3        2.272554576999       2.258702320712       0.001011424288
         6    4       -0.002845423001      -0.005320679288       2.276411424288
         7    3        2.272554576999      -0.005320679288       2.276411424288
         8    4       -0.002845423001       2.258702320712       0.001011424288
