 # File generated with Atomsk by kevin on 2022-03-20 17:48:11
 
           8  atoms
           2  atom types
 
      0.000000000000       4.528046000000  xlo xhi
      0.000000000000       4.550800000000  ylo yhi
      0.000000000000       4.550800000000  zlo zhi
 
Masses
 
            1   0.00000000              # XX
            2   0.00000000              # XX
 
Atoms # atomic
 
         1    3       -0.005455766229      -0.000752120414       0.002934998952
         2    4        2.270736807080       2.281093947351       2.272386624304
         3    3       -0.005455766229       2.274647879586       2.278334998952
         4    4        2.270736807080       0.005693947351      -0.003013375696
         5    3        2.258567233771       2.274647879586       0.002934998952
         6    4       -0.005455766229      -0.000752120414       2.278334998952
         7    3        2.258567233771      -0.000752120414       2.278334998952
         8    4       -0.005455766229       2.274647879586       0.002934998952
