 # File generated with Atomsk by kevin on 2022-03-20 17:48:11
 
           8  atoms
           2  atom types
 
      0.000000000000       4.550800000000  xlo xhi
      0.000000000000       4.550800000000  ylo yhi
      0.000000000000       4.550800000000  zlo zhi
      0.000000000000      -0.022754000000       0.000000000000  xy xz yz
 
Masses
 
            1   0.00000000              # XX
            2   0.00000000              # XX
 
Atoms # atomic
 
         1    3       -0.008398102950      -0.006503687990       0.008636070264
         2    4        2.271352376367       2.274357458640       2.271920330895
         3    3       -0.019775102950       2.268896312010       2.284036070264
         4    4        2.282729376367      -0.001042541360      -0.003479669105
         5    3        2.267001897050       2.268896312010       0.008636070264
         6    4       -0.019775102950      -0.006503687990       2.284036070264
         7    3        2.255624897050      -0.006503687990       2.284036070264
         8    4       -0.008398102950       2.268896312010       0.008636070264
