 # File generated with Atomsk by kevin on 2022-03-20 17:48:09
 
           8  atoms
           2  atom types
 
      0.000000000000       4.550800000000  xlo xhi
      0.000000000000       4.550800000000  ylo yhi
      0.000000000000       4.573554000000  zlo zhi
 
Masses
 
            1   0.00000000              # XX
            2   0.00000000              # XX
 
Atoms # atomic
 
         1    3       -0.010117928752       0.002231606958       0.000404409564
         2    4        2.268077060768       2.278711394910       2.277258222253
         3    3       -0.010117928752       2.277631606958       2.287181409564
         4    4        2.268077060768       0.003311394910      -0.009518777747
         5    3        2.265282071248       2.277631606958       0.000404409564
         6    4       -0.010117928752       0.002231606958       2.287181409564
         7    3        2.265282071248       0.002231606958       2.287181409564
         8    4       -0.010117928752       2.277631606958       0.000404409564
