 # File generated with Atomsk by kevin on 2022-03-20 17:48:09
 
           8  atoms
           2  atom types
 
      0.000000000000       4.550800000000  xlo xhi
      0.000000000000       4.550800000000  ylo yhi
      0.000000000000       4.550800000000  zlo zhi
      0.000000000000       0.022754000000       0.000000000000  xy xz yz
 
Masses
 
            1   0.00000000              # XX
            2   0.00000000              # XX
 
Atoms # atomic
 
         1    3        0.007728428858      -0.004732058697      -0.005189562670
         2    4        2.279633318773       2.271954713374       2.279201515762
         3    3        0.019105428858       2.270667941303       2.270210437330
         4    4        2.268256318773      -0.003445286626       0.003801515762
         5    3        2.283128428858       2.270667941303      -0.005189562670
         6    4        0.019105428858      -0.004732058697       2.270210437330
         7    3        2.294505428858      -0.004732058697       2.270210437330
         8    4        0.007728428858       2.270667941303      -0.005189562670
