 # File generated with Atomsk by kevin on 2022-03-20 17:48:09
 
           8  atoms
           2  atom types
 
      0.000000000000       4.573554000000  xlo xhi
      0.000000000000       4.550800000000  ylo yhi
      0.000000000000       4.550800000000  zlo zhi
 
Masses
 
            1   0.00000000              # XX
            2   0.00000000              # XX
 
Atoms # atomic
 
         1    3       -0.003999477393       0.007669202308       0.002360801067
         2    4        2.288048529671       2.281372972108       2.283557728203
         3    3       -0.003999477393       2.283069202308       2.277760801067
         4    4        2.288048529671       0.005972972108       0.008157728203
         5    3        2.282777522607       2.283069202308       0.002360801067
         6    4       -0.003999477393       0.007669202308       2.277760801067
         7    3        2.282777522607       0.007669202308       2.277760801067
         8    4       -0.003999477393       2.283069202308       0.002360801067
