 # File generated with Atomsk by kevin on 2022-03-20 17:48:09
 
           8  atoms
           2  atom types
 
      0.000000000000       4.550800000000  xlo xhi
      0.000000000000       4.573554000000  ylo yhi
      0.000000000000       4.550800000000  zlo zhi
 
Masses
 
            1   0.00000000              # XX
            2   0.00000000              # XX
 
Atoms # atomic
 
         1    3        0.009405696413      -0.008191143171       0.005288296488
         2    4        2.268582689356       2.287195707528       2.275346417263
         3    3        0.009405696413       2.278585856829       2.280688296488
         4    4        2.268582689356       0.000418707528      -0.000053582737
         5    3        2.284805696413       2.278585856829       0.005288296488
         6    4        0.009405696413      -0.008191143171       2.280688296488
         7    3        2.284805696413      -0.008191143171       2.280688296488
         8    4        0.009405696413       2.278585856829       0.005288296488
