 # File generated with Atomsk by kevin on 2022-03-20 17:48:09
 
           8  atoms
           2  atom types
 
      0.000000000000       4.550800000000  xlo xhi
      0.000000000000       4.550800000000  ylo yhi
      0.000000000000       4.550800000000  zlo zhi
      0.000000000000       0.000000000000       0.022754000000  xy xz yz
 
Masses
 
            1   0.00000000              # XX
            2   0.00000000              # XX
 
Atoms # atomic
 
         1    3       -0.008226102802       0.002752361787       0.001870395657
         2    4        2.269641151895       2.290455489406       2.277690777079
         3    3       -0.008226102802       2.289529361787       2.277270395657
         4    4        2.269641151895       0.003678489406       0.002290777079
         5    3        2.267173897198       2.278152361787       0.001870395657
         6    4       -0.008226102802       0.014129361787       2.277270395657
         7    3        2.267173897198       0.014129361787       2.277270395657
         8    4       -0.008226102802       2.278152361787       0.001870395657
