 # File generated with Atomsk by kevin on 2022-03-20 17:45:23
 
           8  atoms
           2  atom types
 
      0.000000000000       4.550800000000  xlo xhi
      0.000000000000       4.550800000000  ylo yhi
      0.000000000000       4.550800000000  zlo zhi
      0.022754000000       0.000000000000       0.000000000000  xy xz yz
 
Masses
 
            1   0.00000000              # XX
            2   0.00000000              # XX
 
Atoms # atomic
 
         1    3        0.005503668563       0.000760023414      -0.005810195753
         2    4        2.283556754205       2.281619043056       2.271100511470
         3    3        0.016880668563       2.276160023414       2.269589804247
         4    4        2.272179754205       0.006219043056      -0.004299488530
         5    3        2.292280668563       2.276160023414      -0.005810195753
         6    4        0.005503668563       0.000760023414       2.269589804247
         7    3        2.280903668563       0.000760023414       2.269589804247
         8    4        0.016880668563       2.276160023414      -0.005810195753
