 # Mn4 Ni4
 
           8  atoms
           2  atom types
 
      0.000000000000       4.543084000000  xlo xhi
      0.000000000000       4.543084000000  ylo yhi
      0.000000000000       4.543084000000  zlo zhi
 
Masses
 
            1   54.93804500             # Mn
            2   58.69340000             # Ni
 
Atoms # atomic
 
         1    1        0.000000000000       0.000000000000       0.000000000000
         2    2        2.271542000000       2.271542000000       2.271542000000
         3    1        0.000000000000       2.271542000000       2.271542000000
         4    2        2.271542000000       0.000000000000       0.000000000000
         5    1        2.271542000000       2.271542000000       0.000000000000
         6    2        0.000000000000       0.000000000000       2.271542000000
         7    1        2.271542000000       0.000000000000       2.271542000000
         8    2        0.000000000000       2.271542000000       0.000000000000
