
     Program PWSCF v.6.7MaX starts on  9Feb2022 at 11: 8:57 

     This program is part of the open-source Quantum ESPRESSO suite
     for quantum simulation of materials; please cite
         "P. Giannozzi et al., J. Phys.:Condens. Matter 21 395502 (2009);
         "P. Giannozzi et al., J. Phys.:Condens. Matter 29 465901 (2017);
          URL http://www.quantum-espresso.org", 
     in publications or presentations arising from this work. More details at
     http://www.quantum-espresso.org/quote

     Parallel version (MPI), running on    24 processors

     MPI processes distributed on     1 nodes
     R & G space division:  proc/nbgrp/npool/nimage =      24
     Reading input from /home/kevin/QE_CoCrFeMnNi/CoCrFeMnNi/Opt/binary/Opt-B1-CrNi/Mix/MD/600K_0.0001Gpa-B1-CrNi/600K_0.0001Gpa-B1-CrNi.in

     Current dimensions of program PWSCF are:
     Max number of different atomic species (ntypx) = 10
     Max number of k-points (npk) =  40000
     Max angular momentum in pseudopotentials (lmaxx) =  3

     Subspace diagonalization in iterative solution of the eigenvalue problem:
     a serial algorithm will be used

     Found symmetry operation: I + (  0.0000 -0.5000  0.5000)
     This is a supercell, fractional translations are disabled

     Parallelization info
     --------------------
     sticks:   dense  smooth     PW     G-vecs:    dense   smooth      PW
     Min         281      93     25                17309     3327     483
     Max         282      94     26                17313     3332     486
     Sum        6745    2241    621               415445    79885   11633



     bravais-lattice index     =            0
     lattice parameter (alat)  =       8.8471  a.u.
     unit-cell volume          =     692.4802 (a.u.)^3
     number of atoms/cell      =            8
     number of atomic types    =            2
     number of electrons       =       128.00
     number of Kohn-Sham states=           77
     kinetic-energy cutoff     =      90.0000  Ry
     charge density cutoff     =    1080.0000  Ry
     scf convergence threshold =      1.0E-08
     mixing beta               =       0.2000
     number of iterations used =            4  plain     mixing
     energy convergence thresh.=      0.0E+00
     force convergence thresh. =      0.0E+00
     press convergence thresh. =      0.0E+00
     Exchange-correlation=  SLA  PW   PBX  PBC
                           (   1   4   3   4   0   0   0)
     nstep                     =          102


     celldm(1)=   8.847131  celldm(2)=   0.000000  celldm(3)=   0.000000
     celldm(4)=   0.000000  celldm(5)=   0.000000  celldm(6)=   0.000000

     crystal axes: (cart. coord. in units of alat)
               a(1) = (   1.000000   0.000000   0.000000 )  
               a(2) = (   0.000000   1.000000   0.000000 )  
               a(3) = (   0.000000   0.000000   1.000000 )  

     reciprocal axes: (cart. coord. in units 2 pi/alat)
               b(1) = (  1.000000  0.000000  0.000000 )  
               b(2) = (  0.000000  1.000000  0.000000 )  
               b(3) = (  0.000000  0.000000  1.000000 )  


     PseudoPot. # 1 for Ni read from file:
     /opt/QEpot/SSSP_efficiency_pseudos/ni_pbe_v1.4.uspp.F.UPF
     MD5 check sum: 1ee80287db30b12d2bc1f57a5b5d6409
     Pseudo is Ultrasoft + core correction, Zval = 18.0
     Generated by new atomic code, or converted to UPF format
     Using radial grid of  865 points,  6 beta functions with: 
                l(1) =   0
                l(2) =   0
                l(3) =   1
                l(4) =   1
                l(5) =   2
                l(6) =   2
     Q(r) pseudized with 10 coefficients,  rinner =    0.980   0.980   0.980
                                                       0.980   0.980

     PseudoPot. # 2 for Cr read from file:
     /opt/QEpot/SSSP_efficiency_pseudos/cr_pbe_v1.5.uspp.F.UPF
     MD5 check sum: 0d52af634a40206e4dee301ad30da4bf
     Pseudo is Ultrasoft + core correction, Zval = 14.0
     Generated by new atomic code, or converted to UPF format
     Using radial grid of  857 points,  6 beta functions with: 
                l(1) =   0
                l(2) =   0
                l(3) =   1
                l(4) =   1
                l(5) =   2
                l(6) =   2
     Q(r) pseudized with  8 coefficients,  rinner =    0.950   0.950   0.950
                                                       0.950   0.950

     atomic species   valence    mass     pseudopotential
        Ni            18.00    58.69300     Ni( 1.00)
        Cr            14.00    51.99610     Cr( 1.00)

      cell mass =  33.64545 AMU 

     Starting magnetic structure 
     atomic species   magnetization
        Ni           0.000
        Cr           0.000

     No symmetry found



   Cartesian axes

     site n.     atom                  positions (alat units)
         1           Ni  tau(   1) = (   0.0000000   0.5000000   1.0000000  )
         2           Cr  tau(   2) = (   0.5000000   0.0000000   0.5000000  )
         3           Ni  tau(   3) = (   0.0000000   1.0000000   0.5000000  )
         4           Cr  tau(   4) = (   0.5000000   0.5000000   0.0000000  )
         5           Ni  tau(   5) = (   0.5000000   0.0000000   0.0000000  )
         6           Cr  tau(   6) = (   0.0000000   0.5000000   0.5000000  )
         7           Ni  tau(   7) = (   0.5000000   0.5000000   0.5000000  )
         8           Cr  tau(   8) = (   0.0000000   0.0000000   0.0000000  )

     number of k points=    63  Gaussian smearing, width (Ry)=  0.0100
                       cart. coord. in units 2pi/alat
        k(    1) = (   0.0000000   0.0000000   0.0000000), wk =   0.0080000
        k(    2) = (   0.0000000   0.0000000   0.2000000), wk =   0.0160000
        k(    3) = (   0.0000000   0.0000000   0.4000000), wk =   0.0160000
        k(    4) = (   0.0000000   0.2000000   0.0000000), wk =   0.0160000
        k(    5) = (   0.0000000   0.2000000   0.2000000), wk =   0.0160000
        k(    6) = (   0.0000000   0.2000000   0.4000000), wk =   0.0160000
        k(    7) = (   0.0000000   0.2000000  -0.4000000), wk =   0.0160000
        k(    8) = (   0.0000000   0.2000000  -0.2000000), wk =   0.0160000
        k(    9) = (   0.0000000   0.4000000   0.0000000), wk =   0.0160000
        k(   10) = (   0.0000000   0.4000000   0.2000000), wk =   0.0160000
        k(   11) = (   0.0000000   0.4000000   0.4000000), wk =   0.0160000
        k(   12) = (   0.0000000   0.4000000  -0.4000000), wk =   0.0160000
        k(   13) = (   0.0000000   0.4000000  -0.2000000), wk =   0.0160000
        k(   14) = (   0.2000000   0.0000000   0.0000000), wk =   0.0160000
        k(   15) = (   0.2000000   0.0000000   0.2000000), wk =   0.0160000
        k(   16) = (   0.2000000   0.0000000   0.4000000), wk =   0.0160000
        k(   17) = (   0.2000000   0.0000000  -0.4000000), wk =   0.0160000
        k(   18) = (   0.2000000   0.0000000  -0.2000000), wk =   0.0160000
        k(   19) = (   0.2000000   0.2000000   0.0000000), wk =   0.0160000
        k(   20) = (   0.2000000   0.2000000   0.2000000), wk =   0.0160000
        k(   21) = (   0.2000000   0.2000000   0.4000000), wk =   0.0160000
        k(   22) = (   0.2000000   0.2000000  -0.4000000), wk =   0.0160000
        k(   23) = (   0.2000000   0.2000000  -0.2000000), wk =   0.0160000
        k(   24) = (   0.2000000   0.4000000   0.0000000), wk =   0.0160000
        k(   25) = (   0.2000000   0.4000000   0.2000000), wk =   0.0160000
        k(   26) = (   0.2000000   0.4000000   0.4000000), wk =   0.0160000
        k(   27) = (   0.2000000   0.4000000  -0.4000000), wk =   0.0160000
        k(   28) = (   0.2000000   0.4000000  -0.2000000), wk =   0.0160000
        k(   29) = (   0.2000000  -0.4000000   0.0000000), wk =   0.0160000
        k(   30) = (   0.2000000  -0.4000000   0.2000000), wk =   0.0160000
        k(   31) = (   0.2000000  -0.4000000   0.4000000), wk =   0.0160000
        k(   32) = (   0.2000000  -0.4000000  -0.4000000), wk =   0.0160000
        k(   33) = (   0.2000000  -0.4000000  -0.2000000), wk =   0.0160000
        k(   34) = (   0.2000000  -0.2000000   0.0000000), wk =   0.0160000
        k(   35) = (   0.2000000  -0.2000000   0.2000000), wk =   0.0160000
        k(   36) = (   0.2000000  -0.2000000   0.4000000), wk =   0.0160000
        k(   37) = (   0.2000000  -0.2000000  -0.4000000), wk =   0.0160000
        k(   38) = (   0.2000000  -0.2000000  -0.2000000), wk =   0.0160000
        k(   39) = (   0.4000000   0.0000000   0.0000000), wk =   0.0160000
        k(   40) = (   0.4000000   0.0000000   0.2000000), wk =   0.0160000
        k(   41) = (   0.4000000   0.0000000   0.4000000), wk =   0.0160000
        k(   42) = (   0.4000000   0.0000000  -0.4000000), wk =   0.0160000
        k(   43) = (   0.4000000   0.0000000  -0.2000000), wk =   0.0160000
        k(   44) = (   0.4000000   0.2000000   0.0000000), wk =   0.0160000
        k(   45) = (   0.4000000   0.2000000   0.2000000), wk =   0.0160000
        k(   46) = (   0.4000000   0.2000000   0.4000000), wk =   0.0160000
        k(   47) = (   0.4000000   0.2000000  -0.4000000), wk =   0.0160000
        k(   48) = (   0.4000000   0.2000000  -0.2000000), wk =   0.0160000
        k(   49) = (   0.4000000   0.4000000   0.0000000), wk =   0.0160000
        k(   50) = (   0.4000000   0.4000000   0.2000000), wk =   0.0160000
        k(   51) = (   0.4000000   0.4000000   0.4000000), wk =   0.0160000
        k(   52) = (   0.4000000   0.4000000  -0.4000000), wk =   0.0160000
        k(   53) = (   0.4000000   0.4000000  -0.2000000), wk =   0.0160000
        k(   54) = (   0.4000000  -0.4000000   0.0000000), wk =   0.0160000
        k(   55) = (   0.4000000  -0.4000000   0.2000000), wk =   0.0160000
        k(   56) = (   0.4000000  -0.4000000   0.4000000), wk =   0.0160000
        k(   57) = (   0.4000000  -0.4000000  -0.4000000), wk =   0.0160000
        k(   58) = (   0.4000000  -0.4000000  -0.2000000), wk =   0.0160000
        k(   59) = (   0.4000000  -0.2000000   0.0000000), wk =   0.0160000
        k(   60) = (   0.4000000  -0.2000000   0.2000000), wk =   0.0160000
        k(   61) = (   0.4000000  -0.2000000   0.4000000), wk =   0.0160000
        k(   62) = (   0.4000000  -0.2000000  -0.4000000), wk =   0.0160000
        k(   63) = (   0.4000000  -0.2000000  -0.2000000), wk =   0.0160000

     Dense  grid:   415445 G-vectors     FFT dimensions: (  96,  96,  96)

     Smooth grid:    79885 G-vectors     FFT dimensions: (  54,  54,  54)

     Estimated max dynamical RAM per process >     139.63 MB

     Estimated total dynamical RAM >       3.27 GB

     Check: negative core charge=   -0.000007
     Generating pointlists ...
     new r_m :   0.2063 (alat units)  1.8247 (a.u.) for type    1
     new r_m :   0.2063 (alat units)  1.8247 (a.u.) for type    2

     Initial potential from superposition of free atoms

     starting charge  115.99994, renormalised to  128.00000

     negative rho (up, down):  1.789E-03 1.789E-03
     Starting wfcs are   92 randomized atomic wfcs

     total cpu time spent up to now is       16.6 secs

     Self-consistent Calculation

     iteration #  1     ecut=    90.00 Ry     beta= 0.20
     Davidson diagonalization with overlap
     ethr =  1.00E-02,  avg # of iterations =  5.8

     negative rho (up, down):  1.491E-03 1.489E-03

     total cpu time spent up to now is       84.2 secs

     total energy              =   -2043.65263069 Ry
     estimated scf accuracy    <     206.84356150 Ry

     total magnetization       =    -0.01 Bohr mag/cell
     absolute magnetization    =     0.02 Bohr mag/cell

     iteration #  2     ecut=    90.00 Ry     beta= 0.20
     Davidson diagonalization with overlap
     ethr =  1.00E-02,  avg # of iterations =  4.5

     negative rho (up, down):  2.220E-03 2.219E-03

     total cpu time spent up to now is      147.0 secs

     total energy              =   -2074.96486246 Ry
     estimated scf accuracy    <      51.46788349 Ry

     total magnetization       =     0.00 Bohr mag/cell
     absolute magnetization    =     0.01 Bohr mag/cell

     iteration #  3     ecut=    90.00 Ry     beta= 0.20
     Davidson diagonalization with overlap
     ethr =  1.00E-02,  avg # of iterations =  3.8

     negative rho (up, down):  7.223E-03 7.221E-03

     total cpu time spent up to now is      191.1 secs

     total energy              =   -2065.27140848 Ry
     estimated scf accuracy    <      16.34540591 Ry

     total magnetization       =     0.00 Bohr mag/cell
     absolute magnetization    =     0.01 Bohr mag/cell

     iteration #  4     ecut=    90.00 Ry     beta= 0.20
     Davidson diagonalization with overlap
     ethr =  1.00E-02,  avg # of iterations =  5.0

     negative rho (up, down):  1.955E-03 1.954E-03

     total cpu time spent up to now is      250.5 secs

     total energy              =   -2053.15674058 Ry
     estimated scf accuracy    <     237.12623560 Ry

     total magnetization       =    -0.00 Bohr mag/cell
     absolute magnetization    =     0.01 Bohr mag/cell

     iteration #  5     ecut=    90.00 Ry     beta= 0.20
     Davidson diagonalization with overlap
     ethr =  1.00E-02,  avg # of iterations =  5.3

     negative rho (up, down):  2.248E-03 2.247E-03

     total cpu time spent up to now is      311.5 secs

     total energy              =   -2072.51967104 Ry
     estimated scf accuracy    <      13.17033095 Ry

     total magnetization       =     0.01 Bohr mag/cell
     absolute magnetization    =     0.01 Bohr mag/cell

     iteration #  6     ecut=    90.00 Ry     beta= 0.20
     Davidson diagonalization with overlap
     ethr =  1.00E-02,  avg # of iterations =  2.1

     negative rho (up, down):  2.008E-03 2.007E-03

     total cpu time spent up to now is      349.5 secs

     total energy              =   -2073.25767323 Ry
     estimated scf accuracy    <      14.39355213 Ry

     total magnetization       =     0.00 Bohr mag/cell
     absolute magnetization    =     0.02 Bohr mag/cell

     iteration #  7     ecut=    90.00 Ry     beta= 0.20
     Davidson diagonalization with overlap
     ethr =  1.00E-02,  avg # of iterations =  1.4

     negative rho (up, down):  1.971E-03 1.970E-03

     total cpu time spent up to now is      383.1 secs

     total energy              =   -2074.67526501 Ry
     estimated scf accuracy    <       1.42625033 Ry

     total magnetization       =     0.00 Bohr mag/cell
     absolute magnetization    =     0.01 Bohr mag/cell

     iteration #  8     ecut=    90.00 Ry     beta= 0.20
     Davidson diagonalization with overlap
     ethr =  1.11E-03,  avg # of iterations =  1.2

     negative rho (up, down):  1.973E-03 1.973E-03

     total cpu time spent up to now is      415.4 secs

     total energy              =   -2074.64510192 Ry
     estimated scf accuracy    <       2.16901457 Ry

     total magnetization       =     0.00 Bohr mag/cell
     absolute magnetization    =     0.01 Bohr mag/cell

     iteration #  9     ecut=    90.00 Ry     beta= 0.20
     Davidson diagonalization with overlap
     ethr =  1.11E-03,  avg # of iterations =  1.0

     negative rho (up, down):  1.935E-03 1.934E-03

     total cpu time spent up to now is      447.0 secs

     total energy              =   -2074.62134567 Ry
     estimated scf accuracy    <       1.74888713 Ry

     total magnetization       =     0.00 Bohr mag/cell
     absolute magnetization    =     0.00 Bohr mag/cell

     iteration # 10     ecut=    90.00 Ry     beta= 0.20
     Davidson diagonalization with overlap
     ethr =  1.11E-03,  avg # of iterations =  1.0

     negative rho (up, down):  1.810E-03 1.809E-03

     total cpu time spent up to now is      478.5 secs

     total energy              =   -2074.47706066 Ry
     estimated scf accuracy    <       1.44329729 Ry

     total magnetization       =     0.00 Bohr mag/cell
     absolute magnetization    =     0.00 Bohr mag/cell

     iteration # 11     ecut=    90.00 Ry     beta= 0.20
     Davidson diagonalization with overlap
     ethr =  1.11E-03,  avg # of iterations =  1.1

     negative rho (up, down):  1.673E-03 1.672E-03

     total cpu time spent up to now is      510.3 secs

     total energy              =   -2074.50339418 Ry
     estimated scf accuracy    <       0.19777174 Ry

     total magnetization       =    -0.00 Bohr mag/cell
     absolute magnetization    =     0.01 Bohr mag/cell

     iteration # 12     ecut=    90.00 Ry     beta= 0.20
     Davidson diagonalization with overlap
     ethr =  1.55E-04,  avg # of iterations =  2.7

     negative rho (up, down):  1.556E-03 1.556E-03

     total cpu time spent up to now is      548.9 secs

     total energy              =   -2074.51325988 Ry
     estimated scf accuracy    <       0.07909305 Ry

     total magnetization       =     0.00 Bohr mag/cell
     absolute magnetization    =     0.01 Bohr mag/cell

     iteration # 13     ecut=    90.00 Ry     beta= 0.20
     Davidson diagonalization with overlap
     ethr =  6.18E-05,  avg # of iterations =  1.1

     negative rho (up, down):  1.605E-03 1.605E-03

     total cpu time spent up to now is      580.9 secs

     total energy              =   -2074.51210734 Ry
     estimated scf accuracy    <       0.03002293 Ry

     total magnetization       =    -0.00 Bohr mag/cell
     absolute magnetization    =     0.01 Bohr mag/cell

     iteration # 14     ecut=    90.00 Ry     beta= 0.20
     Davidson diagonalization with overlap
     ethr =  2.35E-05,  avg # of iterations =  2.2

     negative rho (up, down):  1.602E-03 1.602E-03

     total cpu time spent up to now is      618.0 secs

     total energy              =   -2074.51253662 Ry
     estimated scf accuracy    <       0.12796092 Ry

     total magnetization       =    -0.00 Bohr mag/cell
     absolute magnetization    =     0.01 Bohr mag/cell

     iteration # 15     ecut=    90.00 Ry     beta= 0.20
     Davidson diagonalization with overlap
     ethr =  2.35E-05,  avg # of iterations =  1.0

     negative rho (up, down):  1.591E-03 1.591E-03

     total cpu time spent up to now is      649.5 secs

     total energy              =   -2074.51579307 Ry
     estimated scf accuracy    <       0.00746537 Ry

     total magnetization       =     0.00 Bohr mag/cell
     absolute magnetization    =     0.01 Bohr mag/cell

     iteration # 16     ecut=    90.00 Ry     beta= 0.20
     Davidson diagonalization with overlap
     ethr =  5.83E-06,  avg # of iterations =  2.0

     negative rho (up, down):  1.584E-03 1.584E-03

     total cpu time spent up to now is      683.9 secs

     total energy              =   -2074.51550522 Ry
     estimated scf accuracy    <       0.02399858 Ry

     total magnetization       =    -0.00 Bohr mag/cell
     absolute magnetization    =     0.01 Bohr mag/cell

     iteration # 17     ecut=    90.00 Ry     beta= 0.20
     Davidson diagonalization with overlap
     ethr =  5.83E-06,  avg # of iterations =  1.0

     negative rho (up, down):  1.590E-03 1.590E-03

     total cpu time spent up to now is      715.5 secs

     total energy              =   -2074.51593125 Ry
     estimated scf accuracy    <       0.00260065 Ry

     total magnetization       =    -0.00 Bohr mag/cell
     absolute magnetization    =     0.01 Bohr mag/cell

     iteration # 18     ecut=    90.00 Ry     beta= 0.20
     Davidson diagonalization with overlap
     ethr =  2.03E-06,  avg # of iterations =  1.4

     negative rho (up, down):  1.592E-03 1.592E-03

     total cpu time spent up to now is      748.5 secs

     total energy              =   -2074.51585943 Ry
     estimated scf accuracy    <       0.00622096 Ry

     total magnetization       =    -0.00 Bohr mag/cell
     absolute magnetization    =     0.01 Bohr mag/cell

     iteration # 19     ecut=    90.00 Ry     beta= 0.20
     Davidson diagonalization with overlap
     ethr =  2.03E-06,  avg # of iterations =  1.0

     negative rho (up, down):  1.592E-03 1.592E-03

     total cpu time spent up to now is      780.1 secs

     total energy              =   -2074.51592783 Ry
     estimated scf accuracy    <       0.00656229 Ry

     total magnetization       =    -0.00 Bohr mag/cell
     absolute magnetization    =     0.01 Bohr mag/cell

     iteration # 20     ecut=    90.00 Ry     beta= 0.20
     Davidson diagonalization with overlap
     ethr =  2.03E-06,  avg # of iterations =  1.0

     negative rho (up, down):  1.592E-03 1.592E-03

     total cpu time spent up to now is      811.7 secs

     total energy              =   -2074.51608346 Ry
     estimated scf accuracy    <       0.00066074 Ry

     total magnetization       =    -0.00 Bohr mag/cell
     absolute magnetization    =     0.01 Bohr mag/cell

     iteration # 21     ecut=    90.00 Ry     beta= 0.20
     Davidson diagonalization with overlap
     ethr =  5.16E-07,  avg # of iterations =  1.0

     negative rho (up, down):  1.594E-03 1.594E-03

     total cpu time spent up to now is      843.2 secs

     total energy              =   -2074.51609374 Ry
     estimated scf accuracy    <       0.00053561 Ry

     total magnetization       =    -0.00 Bohr mag/cell
     absolute magnetization    =     0.01 Bohr mag/cell

     iteration # 22     ecut=    90.00 Ry     beta= 0.20
     Davidson diagonalization with overlap
     ethr =  4.18E-07,  avg # of iterations =  1.0

     negative rho (up, down):  1.594E-03 1.594E-03

     total cpu time spent up to now is      874.7 secs

     total energy              =   -2074.51604427 Ry
     estimated scf accuracy    <       0.00214842 Ry

     total magnetization       =    -0.00 Bohr mag/cell
     absolute magnetization    =     0.01 Bohr mag/cell

     iteration # 23     ecut=    90.00 Ry     beta= 0.20
     Davidson diagonalization with overlap
     ethr =  4.18E-07,  avg # of iterations =  1.0

     negative rho (up, down):  1.594E-03 1.594E-03

     total cpu time spent up to now is      906.2 secs

     total energy              =   -2074.51608705 Ry
     estimated scf accuracy    <       0.00050279 Ry

     total magnetization       =    -0.00 Bohr mag/cell
     absolute magnetization    =     0.01 Bohr mag/cell

     iteration # 24     ecut=    90.00 Ry     beta= 0.20
     Davidson diagonalization with overlap
     ethr =  3.93E-07,  avg # of iterations =  1.0

     negative rho (up, down):  1.596E-03 1.596E-03

     total cpu time spent up to now is      937.7 secs

     total energy              =   -2074.51605884 Ry
     estimated scf accuracy    <       0.00159903 Ry

     total magnetization       =    -0.00 Bohr mag/cell
     absolute magnetization    =     0.01 Bohr mag/cell

     iteration # 25     ecut=    90.00 Ry     beta= 0.20
     Davidson diagonalization with overlap
     ethr =  3.93E-07,  avg # of iterations =  1.0

     negative rho (up, down):  1.595E-03 1.595E-03

     total cpu time spent up to now is      969.2 secs

     total energy              =   -2074.51606450 Ry
     estimated scf accuracy    <       0.00102679 Ry

     total magnetization       =    -0.00 Bohr mag/cell
     absolute magnetization    =     0.01 Bohr mag/cell

     iteration # 26     ecut=    90.00 Ry     beta= 0.20
     Davidson diagonalization with overlap
     ethr =  3.93E-07,  avg # of iterations =  1.0

     negative rho (up, down):  1.596E-03 1.596E-03

     total cpu time spent up to now is     1000.7 secs

     total energy              =   -2074.51609403 Ry
     estimated scf accuracy    <       0.00025479 Ry

     total magnetization       =    -0.00 Bohr mag/cell
     absolute magnetization    =     0.01 Bohr mag/cell

     iteration # 27     ecut=    90.00 Ry     beta= 0.20
     Davidson diagonalization with overlap
     ethr =  1.99E-07,  avg # of iterations =  1.0

     negative rho (up, down):  1.597E-03 1.597E-03

     total cpu time spent up to now is     1032.2 secs

     total energy              =   -2074.51609693 Ry
     estimated scf accuracy    <       0.00024969 Ry

     total magnetization       =    -0.00 Bohr mag/cell
     absolute magnetization    =     0.01 Bohr mag/cell

     iteration # 28     ecut=    90.00 Ry     beta= 0.20
     Davidson diagonalization with overlap
     ethr =  1.95E-07,  avg # of iterations =  1.0

     negative rho (up, down):  1.597E-03 1.597E-03

     total cpu time spent up to now is     1063.6 secs

     total energy              =   -2074.51608977 Ry
     estimated scf accuracy    <       0.00049125 Ry

     total magnetization       =    -0.00 Bohr mag/cell
     absolute magnetization    =     0.02 Bohr mag/cell

     iteration # 29     ecut=    90.00 Ry     beta= 0.20
     Davidson diagonalization with overlap
     ethr =  1.95E-07,  avg # of iterations =  1.0

     negative rho (up, down):  1.597E-03 1.597E-03

     total cpu time spent up to now is     1095.2 secs

     total energy              =   -2074.51609718 Ry
     estimated scf accuracy    <       0.00030201 Ry

     total magnetization       =    -0.00 Bohr mag/cell
     absolute magnetization    =     0.02 Bohr mag/cell

     iteration # 30     ecut=    90.00 Ry     beta= 0.20
     Davidson diagonalization with overlap
     ethr =  1.95E-07,  avg # of iterations =  1.0

     negative rho (up, down):  1.598E-03 1.598E-03

     total cpu time spent up to now is     1126.7 secs

     total energy              =   -2074.51610283 Ry
     estimated scf accuracy    <       0.00015712 Ry

     total magnetization       =    -0.00 Bohr mag/cell
     absolute magnetization    =     0.02 Bohr mag/cell

     iteration # 31     ecut=    90.00 Ry     beta= 0.20
     Davidson diagonalization with overlap
     ethr =  1.23E-07,  avg # of iterations =  1.0

     negative rho (up, down):  1.598E-03 1.598E-03

     total cpu time spent up to now is     1158.1 secs

     total energy              =   -2074.51609875 Ry
     estimated scf accuracy    <       0.00014494 Ry

     total magnetization       =    -0.00 Bohr mag/cell
     absolute magnetization    =     0.02 Bohr mag/cell

     iteration # 32     ecut=    90.00 Ry     beta= 0.20
     Davidson diagonalization with overlap
     ethr =  1.13E-07,  avg # of iterations =  1.0

     negative rho (up, down):  1.598E-03 1.598E-03

     total cpu time spent up to now is     1189.5 secs

     total energy              =   -2074.51610314 Ry
     estimated scf accuracy    <       0.00007842 Ry

     total magnetization       =    -0.00 Bohr mag/cell
     absolute magnetization    =     0.02 Bohr mag/cell

     iteration # 33     ecut=    90.00 Ry     beta= 0.20
     Davidson diagonalization with overlap
     ethr =  6.13E-08,  avg # of iterations =  1.0

     negative rho (up, down):  1.598E-03 1.598E-03

     total cpu time spent up to now is     1221.0 secs

     total energy              =   -2074.51610393 Ry
     estimated scf accuracy    <       0.00006021 Ry

     total magnetization       =    -0.00 Bohr mag/cell
     absolute magnetization    =     0.02 Bohr mag/cell

     iteration # 34     ecut=    90.00 Ry     beta= 0.20
     Davidson diagonalization with overlap
     ethr =  4.70E-08,  avg # of iterations =  1.0

     negative rho (up, down):  1.598E-03 1.598E-03

     total cpu time spent up to now is     1252.4 secs

     total energy              =   -2074.51610206 Ry
     estimated scf accuracy    <       0.00012408 Ry

     total magnetization       =    -0.00 Bohr mag/cell
     absolute magnetization    =     0.02 Bohr mag/cell

     iteration # 35     ecut=    90.00 Ry     beta= 0.20
     Davidson diagonalization with overlap
     ethr =  4.70E-08,  avg # of iterations =  1.0

     negative rho (up, down):  1.599E-03 1.598E-03

     total cpu time spent up to now is     1283.8 secs

     total energy              =   -2074.51610268 Ry
     estimated scf accuracy    <       0.00012070 Ry

     total magnetization       =    -0.00 Bohr mag/cell
     absolute magnetization    =     0.02 Bohr mag/cell

     iteration # 36     ecut=    90.00 Ry     beta= 0.20
     Davidson diagonalization with overlap
     ethr =  4.70E-08,  avg # of iterations =  1.0

     negative rho (up, down):  1.599E-03 1.599E-03

     total cpu time spent up to now is     1315.3 secs

     total energy              =   -2074.51610494 Ry
     estimated scf accuracy    <       0.00005297 Ry

     total magnetization       =    -0.00 Bohr mag/cell
     absolute magnetization    =     0.02 Bohr mag/cell

     iteration # 37     ecut=    90.00 Ry     beta= 0.20
     Davidson diagonalization with overlap
     ethr =  4.14E-08,  avg # of iterations =  1.0

     negative rho (up, down):  1.599E-03 1.599E-03

     total cpu time spent up to now is     1346.7 secs

     total energy              =   -2074.51610403 Ry
     estimated scf accuracy    <       0.00006716 Ry

     total magnetization       =    -0.00 Bohr mag/cell
     absolute magnetization    =     0.02 Bohr mag/cell

     iteration # 38     ecut=    90.00 Ry     beta= 0.20
     Davidson diagonalization with overlap
     ethr =  4.14E-08,  avg # of iterations =  1.0

     negative rho (up, down):  1.599E-03 1.599E-03

     total cpu time spent up to now is     1378.1 secs

     total energy              =   -2074.51610601 Ry
     estimated scf accuracy    <       0.00001272 Ry

     total magnetization       =    -0.00 Bohr mag/cell
     absolute magnetization    =     0.02 Bohr mag/cell

     iteration # 39     ecut=    90.00 Ry     beta= 0.20
     Davidson diagonalization with overlap
     ethr =  9.94E-09,  avg # of iterations =  1.0

     negative rho (up, down):  1.599E-03 1.599E-03

     total cpu time spent up to now is     1409.6 secs

     total energy              =   -2074.51610618 Ry
     estimated scf accuracy    <       0.00002072 Ry

     total magnetization       =    -0.00 Bohr mag/cell
     absolute magnetization    =     0.03 Bohr mag/cell

     iteration # 40     ecut=    90.00 Ry     beta= 0.20
     Davidson diagonalization with overlap
     ethr =  9.94E-09,  avg # of iterations =  1.0

     negative rho (up, down):  1.599E-03 1.599E-03

     total cpu time spent up to now is     1441.0 secs

     total energy              =   -2074.51610604 Ry
     estimated scf accuracy    <       0.00001731 Ry

     total magnetization       =    -0.00 Bohr mag/cell
     absolute magnetization    =     0.03 Bohr mag/cell

     iteration # 41     ecut=    90.00 Ry     beta= 0.20
     Davidson diagonalization with overlap
     ethr =  9.94E-09,  avg # of iterations =  1.0

     negative rho (up, down):  1.599E-03 1.599E-03

     total cpu time spent up to now is     1472.4 secs

     total energy              =   -2074.51610558 Ry
     estimated scf accuracy    <       0.00003790 Ry

     total magnetization       =    -0.00 Bohr mag/cell
     absolute magnetization    =     0.03 Bohr mag/cell

     iteration # 42     ecut=    90.00 Ry     beta= 0.20
     Davidson diagonalization with overlap
     ethr =  9.94E-09,  avg # of iterations =  1.0

     negative rho (up, down):  1.599E-03 1.599E-03

     total cpu time spent up to now is     1503.8 secs

     total energy              =   -2074.51610644 Ry
     estimated scf accuracy    <       0.00002196 Ry

     total magnetization       =    -0.00 Bohr mag/cell
     absolute magnetization    =     0.03 Bohr mag/cell

     iteration # 43     ecut=    90.00 Ry     beta= 0.20
     Davidson diagonalization with overlap
     ethr =  9.94E-09,  avg # of iterations =  1.0

     negative rho (up, down):  1.599E-03 1.599E-03

     total cpu time spent up to now is     1535.2 secs

     total energy              =   -2074.51610652 Ry
     estimated scf accuracy    <       0.00001251 Ry

     total magnetization       =    -0.00 Bohr mag/cell
     absolute magnetization    =     0.03 Bohr mag/cell

     iteration # 44     ecut=    90.00 Ry     beta= 0.20
     Davidson diagonalization with overlap
     ethr =  9.77E-09,  avg # of iterations =  1.0

     negative rho (up, down):  1.600E-03 1.599E-03

     total cpu time spent up to now is     1566.6 secs

     total energy              =   -2074.51610698 Ry
     estimated scf accuracy    <       0.00000523 Ry

     total magnetization       =    -0.00 Bohr mag/cell
     absolute magnetization    =     0.03 Bohr mag/cell

     iteration # 45     ecut=    90.00 Ry     beta= 0.20
     Davidson diagonalization with overlap
     ethr =  4.09E-09,  avg # of iterations =  1.0

     negative rho (up, down):  1.600E-03 1.599E-03

     total cpu time spent up to now is     1598.0 secs

     total energy              =   -2074.51610728 Ry
     estimated scf accuracy    <       0.00000426 Ry

     total magnetization       =    -0.00 Bohr mag/cell
     absolute magnetization    =     0.03 Bohr mag/cell

     iteration # 46     ecut=    90.00 Ry     beta= 0.20
     Davidson diagonalization with overlap
     ethr =  3.33E-09,  avg # of iterations =  1.0

     negative rho (up, down):  1.600E-03 1.600E-03

     total cpu time spent up to now is     1629.4 secs

     total energy              =   -2074.51610741 Ry
     estimated scf accuracy    <       0.00000513 Ry

     total magnetization       =    -0.00 Bohr mag/cell
     absolute magnetization    =     0.04 Bohr mag/cell

     iteration # 47     ecut=    90.00 Ry     beta= 0.20
     Davidson diagonalization with overlap
     ethr =  3.33E-09,  avg # of iterations =  1.0

     negative rho (up, down):  1.600E-03 1.600E-03

     total cpu time spent up to now is     1660.8 secs

     total energy              =   -2074.51610744 Ry
     estimated scf accuracy    <       0.00000402 Ry

     total magnetization       =    -0.00 Bohr mag/cell
     absolute magnetization    =     0.04 Bohr mag/cell

     iteration # 48     ecut=    90.00 Ry     beta= 0.20
     Davidson diagonalization with overlap
     ethr =  3.14E-09,  avg # of iterations =  1.0

     negative rho (up, down):  1.600E-03 1.600E-03

     total cpu time spent up to now is     1692.2 secs

     total energy              =   -2074.51610783 Ry
     estimated scf accuracy    <       0.00000560 Ry

     total magnetization       =    -0.00 Bohr mag/cell
     absolute magnetization    =     0.04 Bohr mag/cell

     iteration # 49     ecut=    90.00 Ry     beta= 0.20
     Davidson diagonalization with overlap
     ethr =  3.14E-09,  avg # of iterations =  1.0

     negative rho (up, down):  1.600E-03 1.600E-03

     total cpu time spent up to now is     1723.6 secs

     total energy              =   -2074.51610793 Ry
     estimated scf accuracy    <       0.00000316 Ry

     total magnetization       =    -0.00 Bohr mag/cell
     absolute magnetization    =     0.04 Bohr mag/cell

     iteration # 50     ecut=    90.00 Ry     beta= 0.20
     Davidson diagonalization with overlap
     ethr =  2.47E-09,  avg # of iterations =  1.0

     negative rho (up, down):  1.600E-03 1.600E-03

     total cpu time spent up to now is     1755.0 secs

     total energy              =   -2074.51610816 Ry
     estimated scf accuracy    <       0.00000220 Ry

     total magnetization       =    -0.00 Bohr mag/cell
     absolute magnetization    =     0.04 Bohr mag/cell

     iteration # 51     ecut=    90.00 Ry     beta= 0.20
     Davidson diagonalization with overlap
     ethr =  1.72E-09,  avg # of iterations =  1.0

     negative rho (up, down):  1.600E-03 1.600E-03

     total cpu time spent up to now is     1786.4 secs

     total energy              =   -2074.51610851 Ry
     estimated scf accuracy    <       0.00000196 Ry

     total magnetization       =    -0.00 Bohr mag/cell
     absolute magnetization    =     0.05 Bohr mag/cell

     iteration # 52     ecut=    90.00 Ry     beta= 0.20
     Davidson diagonalization with overlap
     ethr =  1.53E-09,  avg # of iterations =  1.0

     negative rho (up, down):  1.600E-03 1.600E-03

     total cpu time spent up to now is     1817.8 secs

     total energy              =   -2074.51610835 Ry
     estimated scf accuracy    <       0.00000218 Ry

     total magnetization       =    -0.00 Bohr mag/cell
     absolute magnetization    =     0.05 Bohr mag/cell

     iteration # 53     ecut=    90.00 Ry     beta= 0.20
     Davidson diagonalization with overlap
     ethr =  1.53E-09,  avg # of iterations =  1.0

     negative rho (up, down):  1.600E-03 1.600E-03

     total cpu time spent up to now is     1849.1 secs

     total energy              =   -2074.51610784 Ry
     estimated scf accuracy    <       0.00000300 Ry

     total magnetization       =    -0.00 Bohr mag/cell
     absolute magnetization    =     0.05 Bohr mag/cell

     iteration # 54     ecut=    90.00 Ry     beta= 0.20
     Davidson diagonalization with overlap
     ethr =  1.53E-09,  avg # of iterations =  1.0

     negative rho (up, down):  1.600E-03 1.600E-03

     total cpu time spent up to now is     1880.5 secs

     total energy              =   -2074.51610711 Ry
     estimated scf accuracy    <       0.00000396 Ry

     total magnetization       =    -0.00 Bohr mag/cell
     absolute magnetization    =     0.04 Bohr mag/cell

     iteration # 55     ecut=    90.00 Ry     beta= 0.20
     Davidson diagonalization with overlap
     ethr =  1.53E-09,  avg # of iterations =  1.3

     negative rho (up, down):  1.600E-03 1.600E-03

     total cpu time spent up to now is     1913.1 secs

     total energy              =   -2074.51610717 Ry
     estimated scf accuracy    <       0.00000491 Ry

     total magnetization       =    -0.00 Bohr mag/cell
     absolute magnetization    =     0.04 Bohr mag/cell

     iteration # 56     ecut=    90.00 Ry     beta= 0.20
     Davidson diagonalization with overlap
     ethr =  1.53E-09,  avg # of iterations =  1.0

     negative rho (up, down):  1.600E-03 1.600E-03

     total cpu time spent up to now is     1944.5 secs

     total energy              =   -2074.51610721 Ry
     estimated scf accuracy    <       0.00000205 Ry

     total magnetization       =    -0.00 Bohr mag/cell
     absolute magnetization    =     0.04 Bohr mag/cell

     iteration # 57     ecut=    90.00 Ry     beta= 0.20
     Davidson diagonalization with overlap
     ethr =  1.53E-09,  avg # of iterations =  1.0

     negative rho (up, down):  1.600E-03 1.600E-03

     total cpu time spent up to now is     1975.8 secs

     total energy              =   -2074.51610751 Ry
     estimated scf accuracy    <       0.00000282 Ry

     total magnetization       =    -0.00 Bohr mag/cell
     absolute magnetization    =     0.04 Bohr mag/cell

     iteration # 58     ecut=    90.00 Ry     beta= 0.20
     Davidson diagonalization with overlap
     ethr =  1.53E-09,  avg # of iterations =  1.0

     negative rho (up, down):  1.600E-03 1.600E-03

     total cpu time spent up to now is     2007.2 secs

     total energy              =   -2074.51610768 Ry
     estimated scf accuracy    <       0.00000267 Ry

     total magnetization       =    -0.00 Bohr mag/cell
     absolute magnetization    =     0.04 Bohr mag/cell

     iteration # 59     ecut=    90.00 Ry     beta= 0.20
     Davidson diagonalization with overlap
     ethr =  1.53E-09,  avg # of iterations =  1.0

     negative rho (up, down):  1.600E-03 1.600E-03

     total cpu time spent up to now is     2038.6 secs

     total energy              =   -2074.51610776 Ry
     estimated scf accuracy    <       0.00000224 Ry

     total magnetization       =    -0.00 Bohr mag/cell
     absolute magnetization    =     0.04 Bohr mag/cell

     iteration # 60     ecut=    90.00 Ry     beta= 0.20
     Davidson diagonalization with overlap
     ethr =  1.53E-09,  avg # of iterations =  1.0

     negative rho (up, down):  1.600E-03 1.600E-03

     total cpu time spent up to now is     2069.9 secs

     total energy              =   -2074.51610796 Ry
     estimated scf accuracy    <       0.00000159 Ry

     total magnetization       =    -0.00 Bohr mag/cell
     absolute magnetization    =     0.04 Bohr mag/cell

     iteration # 61     ecut=    90.00 Ry     beta= 0.20
     Davidson diagonalization with overlap
     ethr =  1.24E-09,  avg # of iterations =  1.0

     negative rho (up, down):  1.600E-03 1.600E-03

     total cpu time spent up to now is     2101.3 secs

     total energy              =   -2074.51610802 Ry
     estimated scf accuracy    <       0.00000181 Ry

     total magnetization       =    -0.00 Bohr mag/cell
     absolute magnetization    =     0.04 Bohr mag/cell

     iteration # 62     ecut=    90.00 Ry     beta= 0.20
     Davidson diagonalization with overlap
     ethr =  1.24E-09,  avg # of iterations =  1.0

     negative rho (up, down):  1.600E-03 1.600E-03

     total cpu time spent up to now is     2132.7 secs

     total energy              =   -2074.51610760 Ry
     estimated scf accuracy    <       0.00000196 Ry

     total magnetization       =    -0.00 Bohr mag/cell
     absolute magnetization    =     0.04 Bohr mag/cell

     iteration # 63     ecut=    90.00 Ry     beta= 0.20
     Davidson diagonalization with overlap
     ethr =  1.24E-09,  avg # of iterations =  1.0

     negative rho (up, down):  1.600E-03 1.600E-03

     total cpu time spent up to now is     2164.0 secs

     total energy              =   -2074.51610724 Ry
     estimated scf accuracy    <       0.00000244 Ry

     total magnetization       =    -0.00 Bohr mag/cell
     absolute magnetization    =     0.04 Bohr mag/cell

     iteration # 64     ecut=    90.00 Ry     beta= 0.20
     Davidson diagonalization with overlap
     ethr =  1.24E-09,  avg # of iterations =  1.0

     negative rho (up, down):  1.600E-03 1.600E-03

     total cpu time spent up to now is     2195.4 secs

     total energy              =   -2074.51610622 Ry
     estimated scf accuracy    <       0.00000239 Ry

     total magnetization       =    -0.00 Bohr mag/cell
     absolute magnetization    =     0.04 Bohr mag/cell

     iteration # 65     ecut=    90.00 Ry     beta= 0.20
     Davidson diagonalization with overlap
     ethr =  1.24E-09,  avg # of iterations =  1.5

     negative rho (up, down):  1.600E-03 1.600E-03

     total cpu time spent up to now is     2228.8 secs

     total energy              =   -2074.51610678 Ry
     estimated scf accuracy    <       0.00000273 Ry

     total magnetization       =    -0.00 Bohr mag/cell
     absolute magnetization    =     0.03 Bohr mag/cell

     iteration # 66     ecut=    90.00 Ry     beta= 0.20
     Davidson diagonalization with overlap
     ethr =  1.24E-09,  avg # of iterations =  1.0

     negative rho (up, down):  1.600E-03 1.600E-03

     total cpu time spent up to now is     2260.3 secs

     total energy              =   -2074.51610700 Ry
     estimated scf accuracy    <       0.00000462 Ry

     total magnetization       =    -0.00 Bohr mag/cell
     absolute magnetization    =     0.03 Bohr mag/cell

     iteration # 67     ecut=    90.00 Ry     beta= 0.20
     Davidson diagonalization with overlap
     ethr =  1.24E-09,  avg # of iterations =  1.1

     negative rho (up, down):  1.600E-03 1.600E-03

     total cpu time spent up to now is     2291.9 secs

     total energy              =   -2074.51610707 Ry
     estimated scf accuracy    <       0.00000477 Ry

     total magnetization       =    -0.00 Bohr mag/cell
     absolute magnetization    =     0.03 Bohr mag/cell

     iteration # 68     ecut=    90.00 Ry     beta= 0.20
     Davidson diagonalization with overlap
     ethr =  1.24E-09,  avg # of iterations =  1.0

     negative rho (up, down):  1.600E-03 1.600E-03

     total cpu time spent up to now is     2323.3 secs

     total energy              =   -2074.51610720 Ry
     estimated scf accuracy    <       0.00000158 Ry

     total magnetization       =    -0.00 Bohr mag/cell
     absolute magnetization    =     0.03 Bohr mag/cell

     iteration # 69     ecut=    90.00 Ry     beta= 0.20
     Davidson diagonalization with overlap
     ethr =  1.24E-09,  avg # of iterations =  1.0

     negative rho (up, down):  1.600E-03 1.600E-03

     total cpu time spent up to now is     2354.7 secs

     total energy              =   -2074.51610723 Ry
     estimated scf accuracy    <       0.00000169 Ry

     total magnetization       =    -0.00 Bohr mag/cell
     absolute magnetization    =     0.03 Bohr mag/cell

     iteration # 70     ecut=    90.00 Ry     beta= 0.20
     Davidson diagonalization with overlap
     ethr =  1.24E-09,  avg # of iterations =  1.0

     negative rho (up, down):  1.600E-03 1.600E-03

     total cpu time spent up to now is     2386.0 secs

     total energy              =   -2074.51610756 Ry
     estimated scf accuracy    <       0.00000116 Ry

     total magnetization       =    -0.00 Bohr mag/cell
     absolute magnetization    =     0.04 Bohr mag/cell

     iteration # 71     ecut=    90.00 Ry     beta= 0.20
     Davidson diagonalization with overlap
     ethr =  9.09E-10,  avg # of iterations =  1.0

     negative rho (up, down):  1.600E-03 1.600E-03

     total cpu time spent up to now is     2417.4 secs

     total energy              =   -2074.51610765 Ry
     estimated scf accuracy    <       0.00000191 Ry

     total magnetization       =    -0.00 Bohr mag/cell
     absolute magnetization    =     0.04 Bohr mag/cell

     iteration # 72     ecut=    90.00 Ry     beta= 0.20
     Davidson diagonalization with overlap
     ethr =  9.09E-10,  avg # of iterations =  1.0

     negative rho (up, down):  1.600E-03 1.600E-03

     total cpu time spent up to now is     2448.8 secs

     total energy              =   -2074.51610764 Ry
     estimated scf accuracy    <       0.00000157 Ry

     total magnetization       =    -0.00 Bohr mag/cell
     absolute magnetization    =     0.04 Bohr mag/cell

     iteration # 73     ecut=    90.00 Ry     beta= 0.20
     Davidson diagonalization with overlap
     ethr =  9.09E-10,  avg # of iterations =  1.0

     negative rho (up, down):  1.600E-03 1.600E-03

     total cpu time spent up to now is     2480.1 secs

     total energy              =   -2074.51610755 Ry
     estimated scf accuracy    <       0.00000351 Ry

     total magnetization       =    -0.00 Bohr mag/cell
     absolute magnetization    =     0.04 Bohr mag/cell

     iteration # 74     ecut=    90.00 Ry     beta= 0.20
     Davidson diagonalization with overlap
     ethr =  9.09E-10,  avg # of iterations =  1.0

     negative rho (up, down):  1.600E-03 1.600E-03

     total cpu time spent up to now is     2511.5 secs

     total energy              =   -2074.51610743 Ry
     estimated scf accuracy    <       0.00000187 Ry

     total magnetization       =    -0.00 Bohr mag/cell
     absolute magnetization    =     0.04 Bohr mag/cell

     iteration # 75     ecut=    90.00 Ry     beta= 0.20
     Davidson diagonalization with overlap
     ethr =  9.09E-10,  avg # of iterations =  1.0

     negative rho (up, down):  1.600E-03 1.600E-03

     total cpu time spent up to now is     2542.9 secs

     total energy              =   -2074.51610793 Ry
     estimated scf accuracy    <       0.00000207 Ry

     total magnetization       =    -0.00 Bohr mag/cell
     absolute magnetization    =     0.04 Bohr mag/cell

     iteration # 76     ecut=    90.00 Ry     beta= 0.20
     Davidson diagonalization with overlap
     ethr =  9.09E-10,  avg # of iterations =  1.2

     negative rho (up, down):  1.600E-03 1.600E-03

     total cpu time spent up to now is     2575.0 secs

     total energy              =   -2074.51610820 Ry
     estimated scf accuracy    <       0.00000285 Ry

     total magnetization       =    -0.00 Bohr mag/cell
     absolute magnetization    =     0.05 Bohr mag/cell

     iteration # 77     ecut=    90.00 Ry     beta= 0.20
     Davidson diagonalization with overlap
     ethr =  9.09E-10,  avg # of iterations =  1.0

     negative rho (up, down):  1.600E-03 1.600E-03

     total cpu time spent up to now is     2606.4 secs

     total energy              =   -2074.51610819 Ry
     estimated scf accuracy    <       0.00000353 Ry

     total magnetization       =    -0.00 Bohr mag/cell
     absolute magnetization    =     0.05 Bohr mag/cell

     iteration # 78     ecut=    90.00 Ry     beta= 0.20
     Davidson diagonalization with overlap
     ethr =  9.09E-10,  avg # of iterations =  1.0

     negative rho (up, down):  1.600E-03 1.600E-03

     total cpu time spent up to now is     2637.9 secs

     total energy              =   -2074.51610820 Ry
     estimated scf accuracy    <       0.00000468 Ry

     total magnetization       =    -0.00 Bohr mag/cell
     absolute magnetization    =     0.05 Bohr mag/cell

     iteration # 79     ecut=    90.00 Ry     beta= 0.20
     Davidson diagonalization with overlap
     ethr =  9.09E-10,  avg # of iterations =  1.0

     negative rho (up, down):  1.600E-03 1.600E-03

     total cpu time spent up to now is     2669.3 secs

     total energy              =   -2074.51610823 Ry
     estimated scf accuracy    <       0.00000223 Ry

     total magnetization       =    -0.00 Bohr mag/cell
     absolute magnetization    =     0.05 Bohr mag/cell

     iteration # 80     ecut=    90.00 Ry     beta= 0.20
     Davidson diagonalization with overlap
     ethr =  9.09E-10,  avg # of iterations =  1.0

     negative rho (up, down):  1.600E-03 1.600E-03

     total cpu time spent up to now is     2700.7 secs

     total energy              =   -2074.51610856 Ry
     estimated scf accuracy    <       0.00000222 Ry

     total magnetization       =    -0.00 Bohr mag/cell
     absolute magnetization    =     0.05 Bohr mag/cell

     iteration # 81     ecut=    90.00 Ry     beta= 0.20
     Davidson diagonalization with overlap
     ethr =  9.09E-10,  avg # of iterations =  2.1

     negative rho (up, down):  1.600E-03 1.600E-03

     total cpu time spent up to now is     2737.5 secs

     total energy              =   -2074.51610853 Ry
     estimated scf accuracy    <       0.00001961 Ry

     total magnetization       =    -0.00 Bohr mag/cell
     absolute magnetization    =     0.05 Bohr mag/cell

     iteration # 82     ecut=    90.00 Ry     beta= 0.20
     Davidson diagonalization with overlap
     ethr =  9.09E-10,  avg # of iterations =  1.0

     negative rho (up, down):  1.600E-03 1.600E-03

     total cpu time spent up to now is     2769.1 secs

     total energy              =   -2074.51610599 Ry
     estimated scf accuracy    <       0.00000207 Ry

     total magnetization       =    -0.00 Bohr mag/cell
     absolute magnetization    =     0.05 Bohr mag/cell

     iteration # 83     ecut=    90.00 Ry     beta= 0.20
     Davidson diagonalization with overlap
     ethr =  9.09E-10,  avg # of iterations =  2.7

     negative rho (up, down):  1.600E-03 1.600E-03

     total cpu time spent up to now is     2807.8 secs

     total energy              =   -2074.51610529 Ry
     estimated scf accuracy    <       0.00000787 Ry

     total magnetization       =    -0.00 Bohr mag/cell
     absolute magnetization    =     0.03 Bohr mag/cell

     iteration # 84     ecut=    90.00 Ry     beta= 0.20
     Davidson diagonalization with overlap
     ethr =  9.09E-10,  avg # of iterations =  2.7

     negative rho (up, down):  1.600E-03 1.600E-03

     total cpu time spent up to now is     2846.3 secs

     total energy              =   -2074.51610523 Ry
     estimated scf accuracy    <       0.00001605 Ry

     total magnetization       =    -0.00 Bohr mag/cell
     absolute magnetization    =     0.02 Bohr mag/cell

     iteration # 85     ecut=    90.00 Ry     beta= 0.20
     Davidson diagonalization with overlap
     ethr =  9.09E-10,  avg # of iterations =  3.2

     negative rho (up, down):  1.600E-03 1.600E-03

     total cpu time spent up to now is     2887.9 secs

     total energy              =   -2074.51610720 Ry
     estimated scf accuracy    <       0.00001055 Ry

     total magnetization       =    -0.00 Bohr mag/cell
     absolute magnetization    =     0.05 Bohr mag/cell

     iteration # 86     ecut=    90.00 Ry     beta= 0.20
     Davidson diagonalization with overlap
     ethr =  9.09E-10,  avg # of iterations =  2.4

     negative rho (up, down):  1.600E-03 1.600E-03

     total cpu time spent up to now is     2926.0 secs

     total energy              =   -2074.51610206 Ry
     estimated scf accuracy    <       0.00000779 Ry

     total magnetization       =    -0.00 Bohr mag/cell
     absolute magnetization    =     0.04 Bohr mag/cell

     iteration # 87     ecut=    90.00 Ry     beta= 0.20
     Davidson diagonalization with overlap
     ethr =  9.09E-10,  avg # of iterations =  4.0

     negative rho (up, down):  1.600E-03 1.600E-03

     total cpu time spent up to now is     2971.2 secs

     total energy              =   -2074.51610477 Ry
     estimated scf accuracy    <       0.00000324 Ry

     total magnetization       =    -0.00 Bohr mag/cell
     absolute magnetization    =     0.01 Bohr mag/cell

     iteration # 88     ecut=    90.00 Ry     beta= 0.20
     Davidson diagonalization with overlap
     ethr =  9.09E-10,  avg # of iterations =  3.6

     negative rho (up, down):  1.600E-03 1.600E-03

     total cpu time spent up to now is     3012.7 secs

     total energy              =   -2074.51610521 Ry
     estimated scf accuracy    <       0.00000453 Ry

     total magnetization       =    -0.00 Bohr mag/cell
     absolute magnetization    =     0.03 Bohr mag/cell

     iteration # 89     ecut=    90.00 Ry     beta= 0.20
     Davidson diagonalization with overlap
     ethr =  9.09E-10,  avg # of iterations =  2.4

     negative rho (up, down):  1.600E-03 1.600E-03

     total cpu time spent up to now is     3048.5 secs

     total energy              =   -2074.51610593 Ry
     estimated scf accuracy    <       0.00000188 Ry

     total magnetization       =    -0.00 Bohr mag/cell
     absolute magnetization    =     0.01 Bohr mag/cell

     iteration # 90     ecut=    90.00 Ry     beta= 0.20
     Davidson diagonalization with overlap
     ethr =  9.09E-10,  avg # of iterations =  1.1

     negative rho (up, down):  1.600E-03 1.600E-03

     total cpu time spent up to now is     3080.8 secs

     total energy              =   -2074.51610595 Ry
     estimated scf accuracy    <       0.00000100 Ry

     total magnetization       =    -0.00 Bohr mag/cell
     absolute magnetization    =     0.01 Bohr mag/cell

     iteration # 91     ecut=    90.00 Ry     beta= 0.20
     Davidson diagonalization with overlap
     ethr =  7.78E-10,  avg # of iterations =  1.1

     negative rho (up, down):  1.600E-03 1.600E-03

     total cpu time spent up to now is     3112.6 secs

     total energy              =   -2074.51610578 Ry
     estimated scf accuracy    <       0.00000246 Ry

     total magnetization       =    -0.00 Bohr mag/cell
     absolute magnetization    =     0.01 Bohr mag/cell

     iteration # 92     ecut=    90.00 Ry     beta= 0.20
     Davidson diagonalization with overlap
     ethr =  7.78E-10,  avg # of iterations =  1.1

     negative rho (up, down):  1.600E-03 1.600E-03

     total cpu time spent up to now is     3144.3 secs

     total energy              =   -2074.51610585 Ry
     estimated scf accuracy    <       0.00000158 Ry

     total magnetization       =    -0.00 Bohr mag/cell
     absolute magnetization    =     0.01 Bohr mag/cell

     iteration # 93     ecut=    90.00 Ry     beta= 0.20
     Davidson diagonalization with overlap
     ethr =  7.78E-10,  avg # of iterations =  1.0

     negative rho (up, down):  1.600E-03 1.600E-03

     total cpu time spent up to now is     3175.6 secs

     total energy              =   -2074.51610592 Ry
     estimated scf accuracy    <       0.00000056 Ry

     total magnetization       =    -0.00 Bohr mag/cell
     absolute magnetization    =     0.01 Bohr mag/cell

     iteration # 94     ecut=    90.00 Ry     beta= 0.20
     Davidson diagonalization with overlap
     ethr =  4.39E-10,  avg # of iterations =  1.1

     negative rho (up, down):  1.600E-03 1.600E-03

     total cpu time spent up to now is     3207.4 secs

     total energy              =   -2074.51610592 Ry
     estimated scf accuracy    <       0.00000229 Ry

     total magnetization       =    -0.00 Bohr mag/cell
     absolute magnetization    =     0.01 Bohr mag/cell

     iteration # 95     ecut=    90.00 Ry     beta= 0.20
     Davidson diagonalization with overlap
     ethr =  4.39E-10,  avg # of iterations =  1.0

     negative rho (up, down):  1.600E-03 1.600E-03

     total cpu time spent up to now is     3238.8 secs

     total energy              =   -2074.51610595 Ry
     estimated scf accuracy    <       0.00000069 Ry

     total magnetization       =    -0.00 Bohr mag/cell
     absolute magnetization    =     0.01 Bohr mag/cell

     iteration # 96     ecut=    90.00 Ry     beta= 0.20
     Davidson diagonalization with overlap
     ethr =  4.39E-10,  avg # of iterations =  1.0

     negative rho (up, down):  1.600E-03 1.600E-03

     total cpu time spent up to now is     3270.1 secs

     total energy              =   -2074.51610596 Ry
     estimated scf accuracy    <       0.00000066 Ry

     total magnetization       =    -0.00 Bohr mag/cell
     absolute magnetization    =     0.01 Bohr mag/cell

     iteration # 97     ecut=    90.00 Ry     beta= 0.20
     Davidson diagonalization with overlap
     ethr =  4.39E-10,  avg # of iterations =  1.0

     negative rho (up, down):  1.600E-03 1.600E-03

     total cpu time spent up to now is     3301.4 secs

     total energy              =   -2074.51610600 Ry
     estimated scf accuracy    <       0.00000014 Ry

     total magnetization       =    -0.00 Bohr mag/cell
     absolute magnetization    =     0.01 Bohr mag/cell

     iteration # 98     ecut=    90.00 Ry     beta= 0.20
     Davidson diagonalization with overlap
     ethr =  1.12E-10,  avg # of iterations =  1.0

     negative rho (up, down):  1.600E-03 1.600E-03

     total cpu time spent up to now is     3332.8 secs

     total energy              =   -2074.51610601 Ry
     estimated scf accuracy    <       0.00000024 Ry

     total magnetization       =    -0.00 Bohr mag/cell
     absolute magnetization    =     0.01 Bohr mag/cell

     iteration # 99     ecut=    90.00 Ry     beta= 0.20
     Davidson diagonalization with overlap
     ethr =  1.12E-10,  avg # of iterations =  1.1

     negative rho (up, down):  1.600E-03 1.600E-03

     total cpu time spent up to now is     3364.4 secs

     total energy              =   -2074.51610602 Ry
     estimated scf accuracy    <       0.00000048 Ry

     total magnetization       =    -0.00 Bohr mag/cell
     absolute magnetization    =     0.01 Bohr mag/cell

     iteration #100     ecut=    90.00 Ry     beta= 0.20
     Davidson diagonalization with overlap
     ethr =  1.12E-10,  avg # of iterations =  1.0

     negative rho (up, down):  1.600E-03 1.600E-03

     total cpu time spent up to now is     3395.7 secs

     total energy              =   -2074.51610603 Ry
     estimated scf accuracy    <       0.00000021 Ry

     total magnetization       =    -0.00 Bohr mag/cell
     absolute magnetization    =     0.01 Bohr mag/cell

     iteration #101     ecut=    90.00 Ry     beta= 0.20
     Davidson diagonalization with overlap
     ethr =  1.12E-10,  avg # of iterations =  1.0

     negative rho (up, down):  1.600E-03 1.600E-03

     total cpu time spent up to now is     3427.0 secs

     total energy              =   -2074.51610603 Ry
     estimated scf accuracy    <       0.00000021 Ry

     total magnetization       =    -0.00 Bohr mag/cell
     absolute magnetization    =     0.01 Bohr mag/cell

     iteration #102     ecut=    90.00 Ry     beta= 0.20
     Davidson diagonalization with overlap
     ethr =  1.12E-10,  avg # of iterations =  1.0

     negative rho (up, down):  1.600E-03 1.600E-03

     total cpu time spent up to now is     3458.4 secs

     total energy              =   -2074.51610606 Ry
     estimated scf accuracy    <       0.00000018 Ry

     total magnetization       =    -0.00 Bohr mag/cell
     absolute magnetization    =     0.01 Bohr mag/cell

     iteration #103     ecut=    90.00 Ry     beta= 0.20
     Davidson diagonalization with overlap
     ethr =  1.12E-10,  avg # of iterations =  1.2

     negative rho (up, down):  1.600E-03 1.600E-03

     total cpu time spent up to now is     3490.8 secs

     total energy              =   -2074.51610608 Ry
     estimated scf accuracy    <       0.00000066 Ry

     total magnetization       =    -0.00 Bohr mag/cell
     absolute magnetization    =     0.01 Bohr mag/cell

     iteration #104     ecut=    90.00 Ry     beta= 0.20
     Davidson diagonalization with overlap
     ethr =  1.12E-10,  avg # of iterations =  1.0

     negative rho (up, down):  1.600E-03 1.600E-03

     total cpu time spent up to now is     3522.1 secs

     total energy              =   -2074.51610610 Ry
     estimated scf accuracy    <       0.00000036 Ry

     total magnetization       =    -0.00 Bohr mag/cell
     absolute magnetization    =     0.02 Bohr mag/cell

     iteration #105     ecut=    90.00 Ry     beta= 0.20
     Davidson diagonalization with overlap
     ethr =  1.12E-10,  avg # of iterations =  1.0

     negative rho (up, down):  1.600E-03 1.600E-03

     total cpu time spent up to now is     3553.4 secs

     total energy              =   -2074.51610606 Ry
     estimated scf accuracy    <       0.00000022 Ry

     total magnetization       =    -0.00 Bohr mag/cell
     absolute magnetization    =     0.02 Bohr mag/cell

     iteration #106     ecut=    90.00 Ry     beta= 0.20
     Davidson diagonalization with overlap
     ethr =  1.12E-10,  avg # of iterations =  1.0

     negative rho (up, down):  1.600E-03 1.600E-03

     total cpu time spent up to now is     3584.8 secs

     total energy              =   -2074.51610571 Ry
     estimated scf accuracy    <       0.00000045 Ry

     total magnetization       =    -0.00 Bohr mag/cell
     absolute magnetization    =     0.01 Bohr mag/cell

     iteration #107     ecut=    90.00 Ry     beta= 0.20
     Davidson diagonalization with overlap
     ethr =  1.12E-10,  avg # of iterations =  3.0

     negative rho (up, down):  1.600E-03 1.600E-03

     total cpu time spent up to now is     3624.4 secs

     total energy              =   -2074.51610583 Ry
     estimated scf accuracy    <       0.00000084 Ry

     total magnetization       =    -0.00 Bohr mag/cell
     absolute magnetization    =     0.01 Bohr mag/cell

     iteration #108     ecut=    90.00 Ry     beta= 0.20
     Davidson diagonalization with overlap
     ethr =  1.12E-10,  avg # of iterations =  3.3

     negative rho (up, down):  1.600E-03 1.600E-03

     total cpu time spent up to now is     3666.5 secs

     total energy              =   -2074.51610588 Ry
     estimated scf accuracy    <       0.00000057 Ry

     total magnetization       =    -0.00 Bohr mag/cell
     absolute magnetization    =     0.02 Bohr mag/cell

     iteration #109     ecut=    90.00 Ry     beta= 0.20
     Davidson diagonalization with overlap
     ethr =  1.12E-10,  avg # of iterations =  2.1

     negative rho (up, down):  1.600E-03 1.600E-03

     total cpu time spent up to now is     3702.0 secs

     total energy              =   -2074.51610592 Ry
     estimated scf accuracy    <       0.00000076 Ry

     total magnetization       =    -0.00 Bohr mag/cell
     absolute magnetization    =     0.01 Bohr mag/cell

     iteration #110     ecut=    90.00 Ry     beta= 0.20
     Davidson diagonalization with overlap
     ethr =  1.12E-10,  avg # of iterations =  1.8

     negative rho (up, down):  1.600E-03 1.600E-03

     total cpu time spent up to now is     3736.7 secs

     total energy              =   -2074.51610597 Ry
     estimated scf accuracy    <       0.00000060 Ry

     total magnetization       =    -0.00 Bohr mag/cell
     absolute magnetization    =     0.01 Bohr mag/cell

     iteration #111     ecut=    90.00 Ry     beta= 0.20
     Davidson diagonalization with overlap
     ethr =  1.12E-10,  avg # of iterations =  1.3

     negative rho (up, down):  1.600E-03 1.600E-03

     total cpu time spent up to now is     3769.4 secs

     total energy              =   -2074.51610598 Ry
     estimated scf accuracy    <       0.00000041 Ry

     total magnetization       =    -0.00 Bohr mag/cell
     absolute magnetization    =     0.01 Bohr mag/cell

     iteration #112     ecut=    90.00 Ry     beta= 0.20
     Davidson diagonalization with overlap
     ethr =  1.12E-10,  avg # of iterations =  1.0

     negative rho (up, down):  1.600E-03 1.600E-03

     total cpu time spent up to now is     3800.7 secs

     total energy              =   -2074.51610589 Ry
     estimated scf accuracy    <       0.00000029 Ry

     total magnetization       =    -0.00 Bohr mag/cell
     absolute magnetization    =     0.01 Bohr mag/cell

     iteration #113     ecut=    90.00 Ry     beta= 0.20
     Davidson diagonalization with overlap
     ethr =  1.12E-10,  avg # of iterations =  1.4

     negative rho (up, down):  1.600E-03 1.600E-03

     total cpu time spent up to now is     3833.8 secs

     total energy              =   -2074.51610594 Ry
     estimated scf accuracy    <       0.00000029 Ry

     total magnetization       =    -0.00 Bohr mag/cell
     absolute magnetization    =     0.01 Bohr mag/cell

     iteration #114     ecut=    90.00 Ry     beta= 0.20
     Davidson diagonalization with overlap
     ethr =  1.12E-10,  avg # of iterations =  2.0

     negative rho (up, down):  1.600E-03 1.600E-03

     total cpu time spent up to now is     3870.9 secs

     total energy              =   -2074.51610597 Ry
     estimated scf accuracy    <       0.00000100 Ry

     total magnetization       =    -0.00 Bohr mag/cell
     absolute magnetization    =     0.01 Bohr mag/cell

     iteration #115     ecut=    90.00 Ry     beta= 0.20
     Davidson diagonalization with overlap
     ethr =  1.12E-10,  avg # of iterations =  1.0

     negative rho (up, down):  1.600E-03 1.600E-03

     total cpu time spent up to now is     3902.2 secs

     total energy              =   -2074.51610598 Ry
     estimated scf accuracy    <       0.00000028 Ry

     total magnetization       =    -0.00 Bohr mag/cell
     absolute magnetization    =     0.01 Bohr mag/cell

     iteration #116     ecut=    90.00 Ry     beta= 0.20
     Davidson diagonalization with overlap
     ethr =  1.12E-10,  avg # of iterations =  1.0

     negative rho (up, down):  1.600E-03 1.600E-03

     total cpu time spent up to now is     3933.6 secs

     total energy              =   -2074.51610599 Ry
     estimated scf accuracy    <       0.00000029 Ry

     total magnetization       =    -0.00 Bohr mag/cell
     absolute magnetization    =     0.01 Bohr mag/cell

     iteration #117     ecut=    90.00 Ry     beta= 0.20
     Davidson diagonalization with overlap
     ethr =  1.12E-10,  avg # of iterations =  1.0

     negative rho (up, down):  1.600E-03 1.600E-03

     total cpu time spent up to now is     3964.9 secs

     total energy              =   -2074.51610599 Ry
     estimated scf accuracy    <       0.00000045 Ry

     total magnetization       =    -0.00 Bohr mag/cell
     absolute magnetization    =     0.01 Bohr mag/cell

     iteration #118     ecut=    90.00 Ry     beta= 0.20
     Davidson diagonalization with overlap
     ethr =  1.12E-10,  avg # of iterations =  1.0

     negative rho (up, down):  1.600E-03 1.600E-03

     total cpu time spent up to now is     3996.3 secs

     total energy              =   -2074.51610602 Ry
     estimated scf accuracy    <       0.00000024 Ry

     total magnetization       =    -0.00 Bohr mag/cell
     absolute magnetization    =     0.01 Bohr mag/cell

     iteration #119     ecut=    90.00 Ry     beta= 0.20
     Davidson diagonalization with overlap
     ethr =  1.12E-10,  avg # of iterations =  1.9

     negative rho (up, down):  1.600E-03 1.600E-03

     total cpu time spent up to now is     4031.3 secs

     total energy              =   -2074.51610601 Ry
     estimated scf accuracy    <       0.00000164 Ry

     total magnetization       =    -0.00 Bohr mag/cell
     absolute magnetization    =     0.01 Bohr mag/cell

     iteration #120     ecut=    90.00 Ry     beta= 0.20
     Davidson diagonalization with overlap
     ethr =  1.12E-10,  avg # of iterations =  1.0

     negative rho (up, down):  1.600E-03 1.600E-03

     total cpu time spent up to now is     4062.8 secs

     total energy              =   -2074.51610605 Ry
     estimated scf accuracy    <       0.00000020 Ry

     total magnetization       =    -0.00 Bohr mag/cell
     absolute magnetization    =     0.01 Bohr mag/cell

     iteration #121     ecut=    90.00 Ry     beta= 0.20
     Davidson diagonalization with overlap
     ethr =  1.12E-10,  avg # of iterations =  1.0

     negative rho (up, down):  1.600E-03 1.600E-03

     total cpu time spent up to now is     4094.1 secs

     total energy              =   -2074.51610605 Ry
     estimated scf accuracy    <       0.00000028 Ry

     total magnetization       =    -0.00 Bohr mag/cell
     absolute magnetization    =     0.01 Bohr mag/cell

     iteration #122     ecut=    90.00 Ry     beta= 0.20
     Davidson diagonalization with overlap
     ethr =  1.12E-10,  avg # of iterations =  1.0

     negative rho (up, down):  1.600E-03 1.600E-03

     total cpu time spent up to now is     4125.4 secs

     total energy              =   -2074.51610605 Ry
     estimated scf accuracy    <       0.00000029 Ry

     total magnetization       =    -0.00 Bohr mag/cell
     absolute magnetization    =     0.01 Bohr mag/cell

     iteration #123     ecut=    90.00 Ry     beta= 0.20
     Davidson diagonalization with overlap
     ethr =  1.12E-10,  avg # of iterations =  1.0

     negative rho (up, down):  1.600E-03 1.600E-03

     total cpu time spent up to now is     4156.8 secs

     total energy              =   -2074.51610608 Ry
     estimated scf accuracy    <       0.00000059 Ry

     total magnetization       =    -0.00 Bohr mag/cell
     absolute magnetization    =     0.01 Bohr mag/cell

     iteration #124     ecut=    90.00 Ry     beta= 0.20
     Davidson diagonalization with overlap
     ethr =  1.12E-10,  avg # of iterations =  1.5

     negative rho (up, down):  1.600E-03 1.600E-03

     total cpu time spent up to now is     4190.3 secs

     total energy              =   -2074.51610609 Ry
     estimated scf accuracy    <       0.00000127 Ry

     total magnetization       =    -0.00 Bohr mag/cell
     absolute magnetization    =     0.02 Bohr mag/cell

     iteration #125     ecut=    90.00 Ry     beta= 0.20
     Davidson diagonalization with overlap
     ethr =  1.12E-10,  avg # of iterations =  1.0

     negative rho (up, down):  1.600E-03 1.600E-03

     total cpu time spent up to now is     4221.6 secs

     total energy              =   -2074.51610615 Ry
     estimated scf accuracy    <       0.00000021 Ry

     total magnetization       =    -0.00 Bohr mag/cell
     absolute magnetization    =     0.02 Bohr mag/cell

     iteration #126     ecut=    90.00 Ry     beta= 0.20
     Davidson diagonalization with overlap
     ethr =  1.12E-10,  avg # of iterations =  1.1

     negative rho (up, down):  1.600E-03 1.600E-03

     total cpu time spent up to now is     4253.5 secs

     total energy              =   -2074.51610614 Ry
     estimated scf accuracy    <       0.00000071 Ry

     total magnetization       =    -0.00 Bohr mag/cell
     absolute magnetization    =     0.02 Bohr mag/cell

     iteration #127     ecut=    90.00 Ry     beta= 0.20
     Davidson diagonalization with overlap
     ethr =  1.12E-10,  avg # of iterations =  1.0

     negative rho (up, down):  1.600E-03 1.600E-03

     total cpu time spent up to now is     4284.8 secs

     total energy              =   -2074.51610618 Ry
     estimated scf accuracy    <       0.00000037 Ry

     total magnetization       =    -0.00 Bohr mag/cell
     absolute magnetization    =     0.02 Bohr mag/cell

     iteration #128     ecut=    90.00 Ry     beta= 0.20
     Davidson diagonalization with overlap
     ethr =  1.12E-10,  avg # of iterations =  1.2

     negative rho (up, down):  1.600E-03 1.600E-03

     total cpu time spent up to now is     4317.1 secs

     total energy              =   -2074.51610619 Ry
     estimated scf accuracy    <       0.00000067 Ry

     total magnetization       =    -0.00 Bohr mag/cell
     absolute magnetization    =     0.02 Bohr mag/cell

     iteration #129     ecut=    90.00 Ry     beta= 0.20
     Davidson diagonalization with overlap
     ethr =  1.12E-10,  avg # of iterations =  1.0

     negative rho (up, down):  1.600E-03 1.600E-03

     total cpu time spent up to now is     4348.4 secs

     total energy              =   -2074.51610621 Ry
     estimated scf accuracy    <       0.00000031 Ry

     total magnetization       =    -0.00 Bohr mag/cell
     absolute magnetization    =     0.02 Bohr mag/cell

     iteration #130     ecut=    90.00 Ry     beta= 0.20
     Davidson diagonalization with overlap
     ethr =  1.12E-10,  avg # of iterations =  1.0

     negative rho (up, down):  1.600E-03 1.600E-03

     total cpu time spent up to now is     4379.7 secs

     total energy              =   -2074.51610625 Ry
     estimated scf accuracy    <       0.00000058 Ry

     total magnetization       =    -0.00 Bohr mag/cell
     absolute magnetization    =     0.02 Bohr mag/cell

     iteration #131     ecut=    90.00 Ry     beta= 0.20
     Davidson diagonalization with overlap
     ethr =  1.12E-10,  avg # of iterations =  1.4

     negative rho (up, down):  1.600E-03 1.600E-03

     total cpu time spent up to now is     4412.9 secs

     total energy              =   -2074.51610627 Ry
     estimated scf accuracy    <       0.00000097 Ry

     total magnetization       =    -0.00 Bohr mag/cell
     absolute magnetization    =     0.02 Bohr mag/cell

     iteration #132     ecut=    90.00 Ry     beta= 0.20
     Davidson diagonalization with overlap
     ethr =  1.12E-10,  avg # of iterations =  1.0

     negative rho (up, down):  1.600E-03 1.600E-03

     total cpu time spent up to now is     4444.3 secs

     total energy              =   -2074.51610631 Ry
     estimated scf accuracy    <       0.00000042 Ry

     total magnetization       =    -0.00 Bohr mag/cell
     absolute magnetization    =     0.02 Bohr mag/cell

     iteration #133     ecut=    90.00 Ry     beta= 0.20
     Davidson diagonalization with overlap
     ethr =  1.12E-10,  avg # of iterations =  1.0

     negative rho (up, down):  1.600E-03 1.600E-03

     total cpu time spent up to now is     4475.7 secs

     total energy              =   -2074.51610631 Ry
     estimated scf accuracy    <       0.00000079 Ry

     total magnetization       =    -0.00 Bohr mag/cell
     absolute magnetization    =     0.02 Bohr mag/cell

     iteration #134     ecut=    90.00 Ry     beta= 0.20
     Davidson diagonalization with overlap
     ethr =  1.12E-10,  avg # of iterations =  1.0

     negative rho (up, down):  1.600E-03 1.600E-03

     total cpu time spent up to now is     4507.1 secs

     total energy              =   -2074.51610633 Ry
     estimated scf accuracy    <       0.00000056 Ry

     total magnetization       =    -0.00 Bohr mag/cell
     absolute magnetization    =     0.02 Bohr mag/cell

     iteration #135     ecut=    90.00 Ry     beta= 0.20
     Davidson diagonalization with overlap
     ethr =  1.12E-10,  avg # of iterations =  2.0

     negative rho (up, down):  1.600E-03 1.600E-03

     total cpu time spent up to now is     4543.1 secs

     total energy              =   -2074.51610635 Ry
     estimated scf accuracy    <       0.00000209 Ry

     total magnetization       =    -0.00 Bohr mag/cell
     absolute magnetization    =     0.02 Bohr mag/cell

     iteration #136     ecut=    90.00 Ry     beta= 0.20
     Davidson diagonalization with overlap
     ethr =  1.12E-10,  avg # of iterations =  2.0

     negative rho (up, down):  1.600E-03 1.600E-03

     total cpu time spent up to now is     4580.8 secs

     total energy              =   -2074.51610639 Ry
     estimated scf accuracy    <       0.00000195 Ry

     total magnetization       =    -0.00 Bohr mag/cell
     absolute magnetization    =     0.02 Bohr mag/cell

     iteration #137     ecut=    90.00 Ry     beta= 0.20
     Davidson diagonalization with overlap
     ethr =  1.12E-10,  avg # of iterations =  1.0

     negative rho (up, down):  1.600E-03 1.600E-03

     total cpu time spent up to now is     4612.2 secs

     total energy              =   -2074.51610639 Ry
     estimated scf accuracy    <       0.00000044 Ry

     total magnetization       =    -0.00 Bohr mag/cell
     absolute magnetization    =     0.02 Bohr mag/cell

     iteration #138     ecut=    90.00 Ry     beta= 0.20
     Davidson diagonalization with overlap
     ethr =  1.12E-10,  avg # of iterations =  1.8

     negative rho (up, down):  1.600E-03 1.600E-03

     total cpu time spent up to now is     4647.3 secs

     total energy              =   -2074.51610626 Ry
     estimated scf accuracy    <       0.00000138 Ry

     total magnetization       =    -0.00 Bohr mag/cell
     absolute magnetization    =     0.02 Bohr mag/cell

     iteration #139     ecut=    90.00 Ry     beta= 0.20
     Davidson diagonalization with overlap
     ethr =  1.12E-10,  avg # of iterations =  1.7

     negative rho (up, down):  1.600E-03 1.600E-03

     total cpu time spent up to now is     4682.1 secs

     total energy              =   -2074.51610646 Ry
     estimated scf accuracy    <       0.00000095 Ry

     total magnetization       =    -0.00 Bohr mag/cell
     absolute magnetization    =     0.02 Bohr mag/cell

     iteration #140     ecut=    90.00 Ry     beta= 0.20
     Davidson diagonalization with overlap
     ethr =  1.12E-10,  avg # of iterations =  2.8

     negative rho (up, down):  1.600E-03 1.600E-03

     total cpu time spent up to now is     4721.5 secs

     total energy              =   -2074.51610657 Ry
     estimated scf accuracy    <       0.00000224 Ry

     total magnetization       =    -0.00 Bohr mag/cell
     absolute magnetization    =     0.03 Bohr mag/cell

     iteration #141     ecut=    90.00 Ry     beta= 0.20
     Davidson diagonalization with overlap
     ethr =  1.12E-10,  avg # of iterations =  1.3

     negative rho (up, down):  1.600E-03 1.600E-03

     total cpu time spent up to now is     4754.0 secs

     total energy              =   -2074.51610660 Ry
     estimated scf accuracy    <       0.00000068 Ry

     total magnetization       =    -0.00 Bohr mag/cell
     absolute magnetization    =     0.03 Bohr mag/cell

     iteration #142     ecut=    90.00 Ry     beta= 0.20
     Davidson diagonalization with overlap
     ethr =  1.12E-10,  avg # of iterations =  1.0

     negative rho (up, down):  1.600E-03 1.600E-03

     total cpu time spent up to now is     4785.3 secs

     total energy              =   -2074.51610662 Ry
     estimated scf accuracy    <       0.00000089 Ry

     total magnetization       =    -0.00 Bohr mag/cell
     absolute magnetization    =     0.03 Bohr mag/cell

     iteration #143     ecut=    90.00 Ry     beta= 0.20
     Davidson diagonalization with overlap
     ethr =  1.12E-10,  avg # of iterations =  1.0

     negative rho (up, down):  1.600E-03 1.600E-03

     total cpu time spent up to now is     4816.9 secs

     total energy              =   -2074.51610664 Ry
     estimated scf accuracy    <       0.00000073 Ry

     total magnetization       =    -0.00 Bohr mag/cell
     absolute magnetization    =     0.03 Bohr mag/cell

     iteration #144     ecut=    90.00 Ry     beta= 0.20
     Davidson diagonalization with overlap
     ethr =  1.12E-10,  avg # of iterations =  1.0

[...]
     ethr =  2.74E-09,  avg # of iterations =  1.1

     negative rho (up, down):  6.961E-03 7.098E-03

     total cpu time spent up to now is   169258.4 secs

     total energy              =   -2074.77329860 Ry
     estimated scf accuracy    <       0.00000439 Ry

     total magnetization       =     0.23 Bohr mag/cell
     absolute magnetization    =    12.32 Bohr mag/cell

     iteration # 18     ecut=    90.00 Ry     beta= 0.20
     Davidson diagonalization with overlap
     ethr =  2.74E-09,  avg # of iterations =  2.0

     negative rho (up, down):  6.962E-03 7.098E-03

     total cpu time spent up to now is   169294.4 secs

     total energy              =   -2074.77329887 Ry
     estimated scf accuracy    <       0.00000246 Ry

     total magnetization       =     0.23 Bohr mag/cell
     absolute magnetization    =    12.31 Bohr mag/cell

     iteration # 19     ecut=    90.00 Ry     beta= 0.20
     Davidson diagonalization with overlap
     ethr =  1.93E-09,  avg # of iterations =  1.5

     negative rho (up, down):  6.957E-03 7.092E-03

     total cpu time spent up to now is   169328.1 secs

     total energy              =   -2074.77329930 Ry
     estimated scf accuracy    <       0.00000478 Ry

     total magnetization       =     0.23 Bohr mag/cell
     absolute magnetization    =    12.31 Bohr mag/cell

     iteration # 20     ecut=    90.00 Ry     beta= 0.20
     Davidson diagonalization with overlap
     ethr =  1.93E-09,  avg # of iterations =  1.3

     negative rho (up, down):  6.959E-03 7.095E-03

     total cpu time spent up to now is   169360.9 secs

     total energy              =   -2074.77329927 Ry
     estimated scf accuracy    <       0.00000169 Ry

     total magnetization       =     0.23 Bohr mag/cell
     absolute magnetization    =    12.31 Bohr mag/cell

     iteration # 21     ecut=    90.00 Ry     beta= 0.20
     Davidson diagonalization with overlap
     ethr =  1.32E-09,  avg # of iterations =  1.0

     negative rho (up, down):  6.957E-03 7.093E-03

     total cpu time spent up to now is   169392.3 secs

     total energy              =   -2074.77329953 Ry
     estimated scf accuracy    <       0.00000127 Ry

     total magnetization       =     0.23 Bohr mag/cell
     absolute magnetization    =    12.31 Bohr mag/cell

     iteration # 22     ecut=    90.00 Ry     beta= 0.20
     Davidson diagonalization with overlap
     ethr =  9.95E-10,  avg # of iterations =  1.0

     negative rho (up, down):  6.957E-03 7.093E-03

     total cpu time spent up to now is   169423.8 secs

     total energy              =   -2074.77329958 Ry
     estimated scf accuracy    <       0.00000052 Ry

     total magnetization       =     0.23 Bohr mag/cell
     absolute magnetization    =    12.31 Bohr mag/cell

     iteration # 23     ecut=    90.00 Ry     beta= 0.20
     Davidson diagonalization with overlap
     ethr =  4.07E-10,  avg # of iterations =  1.0

     negative rho (up, down):  6.956E-03 7.092E-03

     total cpu time spent up to now is   169455.3 secs

     total energy              =   -2074.77329968 Ry
     estimated scf accuracy    <       0.00000039 Ry

     total magnetization       =     0.23 Bohr mag/cell
     absolute magnetization    =    12.31 Bohr mag/cell

     iteration # 24     ecut=    90.00 Ry     beta= 0.20
     Davidson diagonalization with overlap
     ethr =  3.03E-10,  avg # of iterations =  1.0

     negative rho (up, down):  6.955E-03 7.090E-03

     total cpu time spent up to now is   169486.8 secs

     total energy              =   -2074.77329976 Ry
     estimated scf accuracy    <       0.00000023 Ry

     total magnetization       =     0.23 Bohr mag/cell
     absolute magnetization    =    12.31 Bohr mag/cell

     iteration # 25     ecut=    90.00 Ry     beta= 0.20
     Davidson diagonalization with overlap
     ethr =  1.83E-10,  avg # of iterations =  1.4

     negative rho (up, down):  6.953E-03 7.089E-03

     total cpu time spent up to now is   169520.1 secs

     total energy              =   -2074.77329983 Ry
     estimated scf accuracy    <       0.00000050 Ry

     total magnetization       =     0.23 Bohr mag/cell
     absolute magnetization    =    12.31 Bohr mag/cell

     iteration # 26     ecut=    90.00 Ry     beta= 0.20
     Davidson diagonalization with overlap
     ethr =  1.83E-10,  avg # of iterations =  1.1

     negative rho (up, down):  6.952E-03 7.087E-03

     total cpu time spent up to now is   169552.1 secs

     total energy              =   -2074.77329988 Ry
     estimated scf accuracy    <       0.00000022 Ry

     total magnetization       =     0.23 Bohr mag/cell
     absolute magnetization    =    12.31 Bohr mag/cell

     iteration # 27     ecut=    90.00 Ry     beta= 0.20
     Davidson diagonalization with overlap
     ethr =  1.75E-10,  avg # of iterations =  1.7

     negative rho (up, down):  6.952E-03 7.087E-03

     total cpu time spent up to now is   169587.3 secs

     total energy              =   -2074.77329990 Ry
     estimated scf accuracy    <       0.00000065 Ry

     total magnetization       =     0.23 Bohr mag/cell
     absolute magnetization    =    12.31 Bohr mag/cell

     iteration # 28     ecut=    90.00 Ry     beta= 0.20
     Davidson diagonalization with overlap
     ethr =  1.75E-10,  avg # of iterations =  1.2

     negative rho (up, down):  6.951E-03 7.086E-03

     total cpu time spent up to now is   169619.5 secs

     total energy              =   -2074.77329993 Ry
     estimated scf accuracy    <       0.00000027 Ry

     total magnetization       =     0.23 Bohr mag/cell
     absolute magnetization    =    12.31 Bohr mag/cell

     iteration # 29     ecut=    90.00 Ry     beta= 0.20
     Davidson diagonalization with overlap
     ethr =  1.75E-10,  avg # of iterations =  1.3

     negative rho (up, down):  6.952E-03 7.087E-03

     total cpu time spent up to now is   169652.0 secs

     total energy              =   -2074.77329990 Ry
     estimated scf accuracy    <       0.00000032 Ry

     total magnetization       =     0.23 Bohr mag/cell
     absolute magnetization    =    12.31 Bohr mag/cell

     iteration # 30     ecut=    90.00 Ry     beta= 0.20
     Davidson diagonalization with overlap
     ethr =  1.75E-10,  avg # of iterations =  1.0

     negative rho (up, down):  6.951E-03 7.086E-03

     total cpu time spent up to now is   169683.4 secs

     total energy              =   -2074.77329995 Ry
     estimated scf accuracy    <       0.00000008 Ry

     total magnetization       =     0.23 Bohr mag/cell
     absolute magnetization    =    12.31 Bohr mag/cell

     iteration # 31     ecut=    90.00 Ry     beta= 0.20
     Davidson diagonalization with overlap
     ethr =  6.37E-11,  avg # of iterations =  1.0

     negative rho (up, down):  6.951E-03 7.086E-03

     total cpu time spent up to now is   169714.8 secs

     total energy              =   -2074.77329995 Ry
     estimated scf accuracy    <       0.00000006 Ry

     total magnetization       =     0.23 Bohr mag/cell
     absolute magnetization    =    12.31 Bohr mag/cell

     iteration # 32     ecut=    90.00 Ry     beta= 0.20
     Davidson diagonalization with overlap
     ethr =  4.78E-11,  avg # of iterations =  1.0

     negative rho (up, down):  6.950E-03 7.085E-03

     total cpu time spent up to now is   169746.2 secs

     total energy              =   -2074.77329997 Ry
     estimated scf accuracy    <       0.00000004 Ry

     total magnetization       =     0.23 Bohr mag/cell
     absolute magnetization    =    12.31 Bohr mag/cell

     iteration # 33     ecut=    90.00 Ry     beta= 0.20
     Davidson diagonalization with overlap
     ethr =  3.29E-11,  avg # of iterations =  1.4

     negative rho (up, down):  6.950E-03 7.085E-03

     total cpu time spent up to now is   169779.3 secs

     total energy              =   -2074.77329998 Ry
     estimated scf accuracy    <       0.00000006 Ry

     total magnetization       =     0.23 Bohr mag/cell
     absolute magnetization    =    12.31 Bohr mag/cell

     iteration # 34     ecut=    90.00 Ry     beta= 0.20
     Davidson diagonalization with overlap
     ethr =  3.29E-11,  avg # of iterations =  1.1

     negative rho (up, down):  6.949E-03 7.084E-03

     total cpu time spent up to now is   169811.0 secs

     total energy              =   -2074.77329999 Ry
     estimated scf accuracy    <       0.00000006 Ry

     total magnetization       =     0.23 Bohr mag/cell
     absolute magnetization    =    12.31 Bohr mag/cell

     iteration # 35     ecut=    90.00 Ry     beta= 0.20
     Davidson diagonalization with overlap
     ethr =  3.29E-11,  avg # of iterations =  2.1

     negative rho (up, down):  6.949E-03 7.084E-03

     total cpu time spent up to now is   169847.7 secs

     total energy              =   -2074.77329999 Ry
     estimated scf accuracy    <       0.00000004 Ry

     total magnetization       =     0.23 Bohr mag/cell
     absolute magnetization    =    12.30 Bohr mag/cell

     iteration # 36     ecut=    90.00 Ry     beta= 0.20
     Davidson diagonalization with overlap
     ethr =  2.74E-11,  avg # of iterations =  2.1

     negative rho (up, down):  6.948E-03 7.083E-03

     total cpu time spent up to now is   169884.1 secs

     total energy              =   -2074.77330000 Ry
     estimated scf accuracy    <       0.00000012 Ry

     total magnetization       =     0.23 Bohr mag/cell
     absolute magnetization    =    12.30 Bohr mag/cell

     iteration # 37     ecut=    90.00 Ry     beta= 0.20
     Davidson diagonalization with overlap
     ethr =  2.74E-11,  avg # of iterations =  1.6

     negative rho (up, down):  6.949E-03 7.084E-03

     total cpu time spent up to now is   169918.2 secs

     total energy              =   -2074.77330000 Ry
     estimated scf accuracy    <       0.00000002 Ry

     total magnetization       =     0.23 Bohr mag/cell
     absolute magnetization    =    12.30 Bohr mag/cell

     iteration # 38     ecut=    90.00 Ry     beta= 0.20
     Davidson diagonalization with overlap
     ethr =  1.43E-11,  avg # of iterations =  1.2

     negative rho (up, down):  6.949E-03 7.084E-03

     total cpu time spent up to now is   169950.5 secs

     total energy              =   -2074.77330000 Ry
     estimated scf accuracy    <       0.00000002 Ry

     total magnetization       =     0.23 Bohr mag/cell
     absolute magnetization    =    12.30 Bohr mag/cell

     iteration # 39     ecut=    90.00 Ry     beta= 0.20
     Davidson diagonalization with overlap
     ethr =  1.38E-11,  avg # of iterations =  1.0

     negative rho (up, down):  6.948E-03 7.083E-03

     Magnetic moment per site:
     atom:    1    charge:   16.2333    magn:    0.1108    constr:    0.0000
     atom:    2    charge:   11.6206    magn:   -2.4417    constr:    0.0000
     atom:    3    charge:   16.2364    magn:   -0.0113    constr:    0.0000
     atom:    4    charge:   11.6217    magn:    2.4248    constr:    0.0000
     atom:    5    charge:   16.2044    magn:    0.0372    constr:    0.0000
     atom:    6    charge:   11.6337    magn:    2.5089    constr:    0.0000
     atom:    7    charge:   16.2488    magn:    0.0052    constr:    0.0000
     atom:    8    charge:   11.6208    magn:   -2.4097    constr:    0.0000

     total cpu time spent up to now is   169981.9 secs

     End of self-consistent calculation

     Number of k-points >= 100: set verbosity='high' to print the bands.

     the Fermi energy is    15.0700 ev

!    total energy              =   -2074.77330000 Ry
     estimated scf accuracy    <          6.6E-09 Ry
     smearing contrib. (-TS)   =      -0.00641680 Ry
     internal energy E=F+TS    =   -2074.76688321 Ry

     total magnetization       =     0.23 Bohr mag/cell
     absolute magnetization    =    12.30 Bohr mag/cell

     convergence has been achieved in  39 iterations

     negative rho (up, down):  6.948E-03 7.083E-03

     Forces acting on atoms (cartesian axes, Ry/au):

     atom    1 type  1   force =    -0.02319694    0.00905988   -0.00340297
     atom    2 type  2   force =     0.01623150    0.01079755   -0.00996468
     atom    3 type  1   force =    -0.00218113   -0.01159799    0.03487300
     atom    4 type  2   force =    -0.01261353    0.00257815   -0.00439642
     atom    5 type  1   force =     0.01059023   -0.01767280   -0.02771873
     atom    6 type  2   force =     0.00777028   -0.01168451   -0.01386535
     atom    7 type  1   force =     0.00783936    0.02787867    0.01011974
     atom    8 type  2   force =    -0.00443978   -0.00935896    0.01435541

     Total force =     0.074081     Total SCF correction =     0.000074


     Computing stress (Cartesian axis) and pressure


     negative rho (up, down):  6.948E-03 7.083E-03
          total   stress  (Ry/bohr**3)                   (kbar)     P=      -25.07
  -0.00023989   0.00005962   0.00012752          -35.29        8.77       18.76
   0.00005962   0.00005289  -0.00006521            8.77        7.78       -9.59
   0.00012752  -0.00006521  -0.00032423           18.76       -9.59      -47.70


     Entering Dynamics;  it =   102   time =  0.09772 pico-seconds

  new lattice vectors (alat unit) :
   1.022782892   0.020382632   0.005951664
   0.020382632   0.994236958  -0.002136970
   0.005951664  -0.002136970   1.032714070
  new unit-cell volume =    726.8865 (a.u.)^3
  new positions in cryst coord
Ni      -0.080206593   0.534808980   1.012319142
Cr       0.512792914   0.042698861   0.424958292
Ni       0.014669857   1.011154387   0.573722167
Cr       0.416468823   0.415875831  -0.013682816
Ni       0.575520006  -0.081594758  -0.070547758
Cr      -0.005131231   0.507627849   0.506562166
Ni       0.492946849   0.537529742   0.487871943
Cr       0.072561987   0.031654609   0.078363402
  new positions in cart coord (alat unit)
Ni      -0.065108134   0.527928736   1.043815988
Cr       0.527875344   0.051996731   0.441821132
Ni       0.039028668   1.004400045   0.590417457
Cr       0.434352395   0.421997092  -0.012540469
Ni       0.586549024  -0.069243153  -0.069255996
Cr       0.008113544   0.503515272   0.522018551
Ni       0.518037525   0.543436922   0.505617388
Cr       0.075326755   0.032783726   0.081291207

     Ekin =     0.05996772 Ry    T =  676.3 K  Etot =    -2074.71332732
     new unit-cell volume =    726.88651 a.u.^3 (   107.71347 Ang^3 )
     density =      6.82565 g/cm^3

CELL_PARAMETERS (angstrom)
   4.788362667   0.095425368   0.027863903
   0.095425368   4.654719168  -0.010004655
   0.027863903  -0.010004655   4.834857462

ATOMIC_POSITIONS (angstrom)
Ni           -0.3048167497        2.4716039655        4.8868333090
Cr            2.4713539982        0.2434330962        2.0684739926
Ni            0.1827205153        4.7022996901        2.7641574107
Cr            2.0335076100        1.9756637838       -0.0587107131
Ni            2.7460465659       -0.3241756695       -0.3242357946
Cr            0.0379851773        2.3573074485        2.4439342510
Ni            2.4252962802        2.5442086362        2.3671489258
Cr            0.3526572705        0.1534835696        0.3805810455



     Maximum number of iterations reached, stopping

     init_run     :     14.93s CPU     15.86s WALL (       1 calls)
     electrons    : 161321.47s CPU 167247.69s WALL (     102 calls)
     update_pot   :    177.61s CPU    180.86s WALL (     101 calls)
     forces       :    842.69s CPU    893.85s WALL (     102 calls)
     stress       :   1484.26s CPU   1554.74s WALL (     102 calls)

     Called by init_run:
     wfcinit      :     12.21s CPU     12.68s WALL (       1 calls)
     potinit      :      0.64s CPU      0.70s WALL (       1 calls)
     hinit0       :      1.05s CPU      1.18s WALL (       1 calls)

     Called by electrons:
     c_bands      : 137577.97s CPU 140477.90s WALL (    4199 calls)
     sum_band     :  19689.60s CPU  21556.44s WALL (    4199 calls)
     v_of_rho     :    814.28s CPU    942.76s WALL (    4301 calls)
     newd         :   3138.55s CPU   4161.45s WALL (    4301 calls)
     mix_rho      :     90.49s CPU    107.85s WALL (    4199 calls)

     Called by c_bands:
     init_us_2    :   2143.26s CPU   2204.47s WALL ( 1083978 calls)
     cegterg      : 132484.02s CPU 135203.47s WALL (  529074 calls)

     Called by *egterg:
     cdiaghg      :  15738.40s CPU  15788.06s WALL ( 1673481 calls)
     h_psi        :  55669.45s CPU  57069.23s WALL ( 1686333 calls)
     s_psi        :   9318.97s CPU   9399.04s WALL ( 1686333 calls)
     g_psi        :    309.90s CPU    314.85s WALL ( 1157133 calls)

     Called by h_psi:
     h_psi:calbec :  14431.51s CPU  15082.03s WALL ( 1686333 calls)
     vloc_psi     :  29241.15s CPU  29841.57s WALL ( 1686333 calls)
     add_vuspsi   :  10694.05s CPU  10813.42s WALL ( 1686333 calls)

     General routines
     calbec       :  19910.75s CPU  20835.29s WALL ( 2279667 calls)
     fft          :    321.40s CPU    427.56s WALL (  111502 calls)
     ffts         :     13.59s CPU     13.88s WALL (   17000 calls)
     fftw         :  32777.78s CPU  33438.54s WALL (******** calls)
     interpolate  :     36.47s CPU     46.86s WALL (    8602 calls)

     Parallel routines
     fft_scatt_xy :   3051.31s CPU   3103.05s WALL (******** calls)
     fft_scatt_yz :  15326.42s CPU  15746.30s WALL (******** calls)

     PWSCF        :   1d21h32m CPU   1d23h13m WALL


   This run was terminated on:  10:22:23  11Feb2022            

=------------------------------------------------------------------------------=
   JOB DONE.
=------------------------------------------------------------------------------=
Note: The following floating-point exceptions are signalling: IEEE_UNDERFLOW_FLAG IEEE_DENORMAL
Note: The following floating-point exceptions are signalling: IEEE_UNDERFLOW_FLAG IEEE_DENORMAL
Note: The following floating-point exceptions are signalling: IEEE_UNDERFLOW_FLAG IEEE_DENORMAL
Note: The following floating-point exceptions are signalling: IEEE_UNDERFLOW_FLAG IEEE_DENORMAL
Note: The following floating-point exceptions are signalling: IEEE_UNDERFLOW_FLAG IEEE_DENORMAL
Note: The following floating-point exceptions are signalling: IEEE_UNDERFLOW_FLAG IEEE_DENORMAL
Note: The following floating-point exceptions are signalling: IEEE_UNDERFLOW_FLAG IEEE_DENORMAL
Note: The following floating-point exceptions are signalling: IEEE_UNDERFLOW_FLAG IEEE_DENORMAL
Note: The following floating-point exceptions are signalling: IEEE_UNDERFLOW_FLAG IEEE_DENORMAL
Note: The following floating-point exceptions are signalling: IEEE_UNDERFLOW_FLAG IEEE_DENORMAL
Note: The following floating-point exceptions are signalling: IEEE_UNDERFLOW_FLAG IEEE_DENORMAL
Note: The following floating-point exceptions are signalling: IEEE_UNDERFLOW_FLAG IEEE_DENORMAL
Note: The following floating-point exceptions are signalling: IEEE_UNDERFLOW_FLAG IEEE_DENORMAL
Note: The following floating-point exceptions are signalling: IEEE_UNDERFLOW_FLAG IEEE_DENORMAL
Note: The following floating-point exceptions are signalling: IEEE_UNDERFLOW_FLAG IEEE_DENORMAL
Note: The following floating-point exceptions are signalling: IEEE_UNDERFLOW_FLAG IEEE_DENORMAL
Note: The following floating-point exceptions are signalling: IEEE_UNDERFLOW_FLAG IEEE_DENORMAL
Note: The following floating-point exceptions are signalling: IEEE_UNDERFLOW_FLAG IEEE_DENORMAL
Note: The following floating-point exceptions are signalling: IEEE_UNDERFLOW_FLAG IEEE_DENORMAL
Note: The following floating-point exceptions are signalling: IEEE_UNDERFLOW_FLAG IEEE_DENORMAL
Note: The following floating-point exceptions are signalling: IEEE_UNDERFLOW_FLAG IEEE_DENORMAL
Note: The following floating-point exceptions are signalling: IEEE_UNDERFLOW_FLAG IEEE_DENORMAL
Note: The following floating-point exceptions are signalling: IEEE_UNDERFLOW_FLAG IEEE_DENORMAL
Note: The following floating-point exceptions are signalling: IEEE_UNDERFLOW_FLAG IEEE_DENORMAL
