LAMMPS data file

1 atoms
1 atom types

0.0 2.44388158817266 xlo xhi
0.0 2.30408470184105 ylo yhi
0.0 1.99544679200761 zlo zhi
-0.814604337201721 -0.814577623278476 -1.15191726669384 xy xz yz


Atoms

1 1 0.0000000000 0.0000000000 0.0000000000
