 # H
  
           1  atoms
           1  atom types
 
      0.000000000000       2.362436666667  xlo xhi
      0.000000000000       2.160240680010  ylo yhi
      0.000000000000       1.990732745646  zlo zhi
     -0.956038953198       0.740170657292       0.909127941273  xy xz yz
 
Masses
 
            1   1.00800000              # H
 
Atoms # atomic
 
         1    1        0.905268272855       0.100453103394       0.040216183667
