 # H
  
           1  atoms
           1  atom types
 
      0.000000000000       2.321705000000  xlo xhi
      0.000000000000       2.172597019314  ylo yhi
      0.000000000000       1.891338756163  zlo zhi
     -0.818349059856       0.525038541784       0.973476000608  xy xz yz
 
Masses
 
            1   1.00800000              # H
 
Atoms # atomic
 
         1    1        0.076383151622       0.047856470826       0.116669388961
