 # H
  
           1  atoms
           1  atom types
 
      0.000000000000       2.321705000000  xlo xhi
      0.000000000000       2.170574178210  ylo yhi
      0.000000000000       1.988699870407  zlo zhi
     -0.823699416648      -0.602571896860      -1.035303301771  xy xz yz
 
Masses
 
            1   1.00800000              # H
 
Atoms # atomic
 
         1    1        0.988881227276       0.924562411718       0.964847805504
