 # H
  
           1  atoms
           1  atom types
 
      0.000000000000       2.321705000000  xlo xhi
      0.000000000000       2.269197719050  ylo yhi
      0.000000000000       2.039662002243  zlo zhi
     -0.907138441397      -0.839987471993      -1.051835730284  xy xz yz
 
Masses
 
            1   1.00800000              # H
 
Atoms # atomic
 
         1    1        0.114761300641       0.978582749587       0.083792164543
