 # H
  
           1  atoms
           1  atom types
 
      0.000000000000       2.525363333333  xlo xhi
      0.000000000000       2.326673258499  ylo yhi
      0.000000000000       1.974145171104  zlo zhi
     -0.981595444053       0.868008672697       1.054565258128  xy xz yz
 
Masses
 
            1   1.00800000              # H
 
Atoms # atomic
 
         1    1        0.972265474196       0.063435678985       0.020413072036
