 # H
  
           1  atoms
           1  atom types
 
      0.000000000000       2.566095000000  xlo xhi
      0.000000000000       2.332588214002  ylo yhi
      0.000000000000       1.953959703526  zlo zhi
     -0.728828281490       1.097890658025       1.064706926902  xy xz yz
 
Masses
 
            1   1.00800000              # H
 
Atoms # atomic
 
         1    1        0.001968003048       0.050358221111       0.087263248722
