 # H
  
           1  atoms
           1  atom types
 
      0.000000000000       2.403168333333  xlo xhi
      0.000000000000       2.321766886369  ylo yhi
      0.000000000000       2.059232896809  zlo zhi
     -0.619793473876      -0.686994283549      -1.122389046218  xy xz yz
 
Masses
 
            1   1.00800000              # H
 
Atoms # atomic
 
         1    1        0.085334790823       0.099516858639       0.922736293406
