 # H
  
           1  atoms
           1  atom types
 
      0.000000000000       2.484631666667  xlo xhi
      0.000000000000       2.351223368034  ylo yhi
      0.000000000000       1.988776861097  zlo zhi
     -0.666263546662      -0.851181771240      -1.136844153379  xy xz yz
 
Masses
 
            1   1.00800000              # H
 
Atoms # atomic
 
         1    1        0.988221704848       0.075661757865       0.910547961537
