 # H
  
           1  atoms
           1  atom types
 
      0.000000000000       2.525363333333  xlo xhi
      0.000000000000       2.233083306335  ylo yhi
      0.000000000000       1.915111781859  zlo zhi
     -0.992722210373       0.564930314445       1.063450417747  xy xz yz
 
Masses
 
            1   1.00800000              # H
 
Atoms # atomic
 
         1    1        0.059054427435       0.880845565624       0.919615510199
