 # H
  
           1  atoms
           1  atom types
 
      0.000000000000       2.362436666667  xlo xhi
      0.000000000000       2.245184834338  ylo yhi
      0.000000000000       1.847020684900  zlo zhi
     -0.734707652920       0.877853144503       0.977568549385  xy xz yz
 
Masses
 
            1   1.00800000              # H
 
Atoms # atomic
 
         1    1        0.904272394555       0.941719534572       0.000775915795
