 # H
  
           1  atoms
           1  atom types
 
      0.000000000000       2.403168333333  xlo xhi
      0.000000000000       2.200400365425  ylo yhi
      0.000000000000       1.847775339813  zlo zhi
     -0.965910791294       0.672548976257       0.867849230234  xy xz yz
 
Masses
 
            1   1.00800000              # H
 
Atoms # atomic
 
         1    1        0.885289357522       0.943040077729       0.871483382123
