 # H
  
           1  atoms
           1  atom types
 
      0.000000000000       2.484631666667  xlo xhi
      0.000000000000       2.402086752912  ylo yhi
      0.000000000000       2.179264721031  zlo zhi
     -0.634719270533      -0.661587733389      -0.886152011058  xy xz yz
 
Masses
 
            1   1.00800000              # H
 
Atoms # atomic
 
         1    1        0.007572704601       0.133048906196       0.018884600572
