 # H
  
           1  atoms
           1  atom types
 
      0.000000000000       2.484631666667  xlo xhi
      0.000000000000       2.377130841626  ylo yhi
      0.000000000000       2.110943987657  zlo zhi
     -0.722591366327      -0.897581834154      -0.954542640678  xy xz yz
 
Masses
 
            1   1.00800000              # H
 
Atoms # atomic
 
         1    1        0.870578292965       0.958258410871       0.017517935434
