 # H
  
           1  atoms
           1  atom types
 
      0.000000000000       2.362436666667  xlo xhi
      0.000000000000       2.355955961231  ylo yhi
      0.000000000000       1.951005665515  zlo zhi
     -0.649330384888       0.945923115641       1.100103532510  xy xz yz
 
Masses
 
            1   1.00800000              # H
 
Atoms # atomic
 
         1    1        0.078526501896       0.023500445977       0.939467343054
