 # H
  
           1  atoms
           1  atom types
 
      0.000000000000       2.566095000000  xlo xhi
      0.000000000000       2.399311112664  ylo yhi
      0.000000000000       1.901865075131  zlo zhi
     -0.909731204669       0.758259327264       1.154933340266  xy xz yz
 
Masses
 
            1   1.00800000              # H
 
Atoms # atomic
 
         1    1        0.038871116675       0.940675749331       0.976025598940
