LAMMPS data file

2 atoms
1 atom types

0.0 2.44961661924154 xlo xhi
0.0 2.31994099258371 ylo yhi
0.0 3.95305600299134 zlo zhi
-0.78644509713143 0.000416754562163822 -0.000298850508251887 xy xz yz


Atoms

1 1 -0.0000011037 -0.0000002198 -0.0000000147
2 1 1.0003222681 1.0180540684 1.9765255713
