
     Program PWSCF v.6.7MaX starts on 16May2022 at 20:40:36 

     This program is part of the open-source Quantum ESPRESSO suite
     for quantum simulation of materials; please cite
         "P. Giannozzi et al., J. Phys.:Condens. Matter 21 395502 (2009);
         "P. Giannozzi et al., J. Phys.:Condens. Matter 29 465901 (2017);
          URL http://www.quantum-espresso.org", 
     in publications or presentations arising from this work. More details at
     http://www.quantum-espresso.org/quote

     Parallel version (MPI), running on     4 processors

     MPI processes distributed on     1 nodes
     R & G space division:  proc/nbgrp/npool/nimage =       4
     Reading input from Fe_mp-1271295.in

     Current dimensions of program PWSCF are:
     Max number of different atomic species (ntypx) = 10
     Max number of k-points (npk) =  40000
     Max angular momentum in pseudopotentials (lmaxx) =  3
     file Fe.pbe-spn-kjpaw_psl.0.2.1.UPF: wavefunction(s)  3D renormalized

     Subspace diagonalization in iterative solution of the eigenvalue problem:
     a serial algorithm will be used

     Found symmetry operation: I + (  0.5000 -0.5000  0.5000)
     This is a supercell, fractional translations are disabled

     Parallelization info
     --------------------
     sticks:   dense  smooth     PW     G-vecs:    dense   smooth      PW
     Min         448     149     44                22007     4246     694
     Max         450     150     45                22008     4248     697
     Sum        1795     597    177                88031    16987    2779



     bravais-lattice index     =            0
     lattice parameter (alat)  =       4.5785  a.u.
     unit-cell volume          =     146.9379 (a.u.)^3
     number of atoms/cell      =            2
     number of atomic types    =            1
     number of electrons       =        32.00
     number of Kohn-Sham states=           20
     kinetic-energy cutoff     =      90.0000  Ry
     charge density cutoff     =    1080.0000  Ry
     scf convergence threshold =      1.0E-08
     mixing beta               =       0.2000
     number of iterations used =            8  plain     mixing
     energy convergence thresh.=      1.0E-05
     force convergence thresh. =      1.0E-04
     press convergence thresh. =      1.0E-01
     Exchange-correlation= SLA  PW   PBX  PBC
                           (   1   4   3   4   0   0   0)
     nstep                     =         1000


     celldm(1)=   4.578501  celldm(2)=   0.000000  celldm(3)=   0.000000
     celldm(4)=   0.000000  celldm(5)=   0.000000  celldm(6)=   0.000000

     crystal axes: (cart. coord. in units of alat)
               a(1) = (   1.000000   0.000000   0.000000 )  
               a(2) = (  -0.015269   0.999883   0.000000 )  
               a(3) = (  -0.000684   0.000685   1.531139 )  

     reciprocal axes: (cart. coord. in units 2 pi/alat)
               b(1) = (  1.000000  0.015271  0.000440 )  
               b(2) = (  0.000000  1.000117 -0.000448 )  
               b(3) = (  0.000000 -0.000000  0.653109 )  


     PseudoPot. # 1 for Fe read from file:
     /opt/QEpot/SSSP_precision_pseudos/Fe.pbe-spn-kjpaw_psl.0.2.1.UPF
     MD5 check sum: e86618425769142926afa95317d90200
     Pseudo is Projector augmented-wave + core cor, Zval = 16.0
     Generated using "atomic" code by A. Dal Corso  v.5.0.99 svn rev. 10869
     Shape of augmentation charge: PSQ
     Using radial grid of 1191 points,  6 beta functions with: 
                l(1) =   0
                l(2) =   0
                l(3) =   1
                l(4) =   1
                l(5) =   2
                l(6) =   2
     Q(r) pseudized with 0 coefficients 


     atomic species   valence    mass     pseudopotential
        Fe            16.00    55.84500     Fe( 1.00)

     Starting magnetic structure 
     atomic species   magnetization
        Fe           0.200

     No symmetry found



   Cartesian axes

     site n.     atom                  positions (alat units)
         1           Fe  tau(   1) = (   0.0000000   0.0000000   0.0000000  )
         2           Fe  tau(   2) = (   0.4920231   0.5002844   0.7655696  )

     number of k points=    63  Gaussian smearing, width (Ry)=  0.0100
                       cart. coord. in units 2pi/alat
        k(    1) = (   0.0000000   0.0000000   0.0000000), wk =   0.0080000
        k(    2) = (   0.0000000   0.0000000   0.1306217), wk =   0.0160000
        k(    3) = (   0.0000000   0.0000000   0.2612434), wk =   0.0160000
        k(    4) = (   0.0000000   0.2000233  -0.0000895), wk =   0.0160000
        k(    5) = (   0.0000000   0.2000233   0.1305322), wk =   0.0160000
        k(    6) = (   0.0000000   0.2000233   0.2611539), wk =   0.0160000
        k(    7) = (   0.0000000   0.2000233  -0.2613329), wk =   0.0160000
        k(    8) = (   0.0000000   0.2000233  -0.1307112), wk =   0.0160000
        k(    9) = (   0.0000000   0.4000466  -0.0001790), wk =   0.0160000
        k(   10) = (   0.0000000   0.4000466   0.1304427), wk =   0.0160000
        k(   11) = (   0.0000000   0.4000466   0.2610644), wk =   0.0160000
        k(   12) = (   0.0000000   0.4000466  -0.2614225), wk =   0.0160000
        k(   13) = (   0.0000000   0.4000466  -0.1308008), wk =   0.0160000
        k(   14) = (   0.2000000   0.0030542   0.0000880), wk =   0.0160000
        k(   15) = (   0.2000000   0.0030542   0.1307097), wk =   0.0160000
        k(   16) = (   0.2000000   0.0030542   0.2613314), wk =   0.0160000
        k(   17) = (   0.2000000   0.0030542  -0.2611554), wk =   0.0160000
        k(   18) = (   0.2000000   0.0030542  -0.1305337), wk =   0.0160000
        k(   19) = (   0.2000000   0.2030775  -0.0000015), wk =   0.0160000
        k(   20) = (   0.2000000   0.2030775   0.1306202), wk =   0.0160000
        k(   21) = (   0.2000000   0.2030775   0.2612419), wk =   0.0160000
        k(   22) = (   0.2000000   0.2030775  -0.2612449), wk =   0.0160000
        k(   23) = (   0.2000000   0.2030775  -0.1306232), wk =   0.0160000
        k(   24) = (   0.2000000   0.4031008  -0.0000910), wk =   0.0160000
        k(   25) = (   0.2000000   0.4031008   0.1305307), wk =   0.0160000
        k(   26) = (   0.2000000   0.4031008   0.2611524), wk =   0.0160000
        k(   27) = (   0.2000000   0.4031008  -0.2613344), wk =   0.0160000
        k(   28) = (   0.2000000   0.4031008  -0.1307127), wk =   0.0160000
        k(   29) = (   0.2000000  -0.3969924   0.0002671), wk =   0.0160000
        k(   30) = (   0.2000000  -0.3969924   0.1308888), wk =   0.0160000
        k(   31) = (   0.2000000  -0.3969924   0.2615105), wk =   0.0160000
        k(   32) = (   0.2000000  -0.3969924  -0.2609763), wk =   0.0160000
        k(   33) = (   0.2000000  -0.3969924  -0.1303546), wk =   0.0160000
        k(   34) = (   0.2000000  -0.1969691   0.0001776), wk =   0.0160000
        k(   35) = (   0.2000000  -0.1969691   0.1307993), wk =   0.0160000
        k(   36) = (   0.2000000  -0.1969691   0.2614210), wk =   0.0160000
        k(   37) = (   0.2000000  -0.1969691  -0.2610658), wk =   0.0160000
        k(   38) = (   0.2000000  -0.1969691  -0.1304441), wk =   0.0160000
        k(   39) = (   0.4000000   0.0061085   0.0001761), wk =   0.0160000
        k(   40) = (   0.4000000   0.0061085   0.1307978), wk =   0.0160000
        k(   41) = (   0.4000000   0.0061085   0.2614195), wk =   0.0160000
        k(   42) = (   0.4000000   0.0061085  -0.2610673), wk =   0.0160000
        k(   43) = (   0.4000000   0.0061085  -0.1304456), wk =   0.0160000
        k(   44) = (   0.4000000   0.2061318   0.0000866), wk =   0.0160000
        k(   45) = (   0.4000000   0.2061318   0.1307083), wk =   0.0160000
        k(   46) = (   0.4000000   0.2061318   0.2613300), wk =   0.0160000
        k(   47) = (   0.4000000   0.2061318  -0.2611568), wk =   0.0160000
        k(   48) = (   0.4000000   0.2061318  -0.1305351), wk =   0.0160000
        k(   49) = (   0.4000000   0.4061551  -0.0000030), wk =   0.0160000
        k(   50) = (   0.4000000   0.4061551   0.1306187), wk =   0.0160000
        k(   51) = (   0.4000000   0.4061551   0.2612404), wk =   0.0160000
        k(   52) = (   0.4000000   0.4061551  -0.2612464), wk =   0.0160000
        k(   53) = (   0.4000000   0.4061551  -0.1306247), wk =   0.0160000
        k(   54) = (   0.4000000  -0.3939382   0.0003551), wk =   0.0160000
        k(   55) = (   0.4000000  -0.3939382   0.1309768), wk =   0.0160000
        k(   56) = (   0.4000000  -0.3939382   0.2615985), wk =   0.0160000
        k(   57) = (   0.4000000  -0.3939382  -0.2608883), wk =   0.0160000
        k(   58) = (   0.4000000  -0.3939382  -0.1302666), wk =   0.0160000
        k(   59) = (   0.4000000  -0.1939149   0.0002656), wk =   0.0160000
        k(   60) = (   0.4000000  -0.1939149   0.1308873), wk =   0.0160000
        k(   61) = (   0.4000000  -0.1939149   0.2615090), wk =   0.0160000
        k(   62) = (   0.4000000  -0.1939149  -0.2609778), wk =   0.0160000
        k(   63) = (   0.4000000  -0.1939149  -0.1303561), wk =   0.0160000

     Dense  grid:    88031 G-vectors     FFT dimensions: (  48,  48,  75)

     Smooth grid:    16987 G-vectors     FFT dimensions: (  27,  27,  45)

     Estimated max dynamical RAM per process >     114.47 MB

     Estimated total dynamical RAM >     457.90 MB

     Check: negative core charge=   -0.000011
     Generating pointlists ...
     new r_m :   0.4125 (alat units)  1.8886 (a.u.) for type    1

     Initial potential from superposition of free atoms

     starting charge   31.99912, renormalised to   32.00000
     Starting wfcs are   26 randomized atomic wfcs
     Checking if some PAW data can be deallocated... 

     total cpu time spent up to now is        2.3 secs

     Self-consistent Calculation

     iteration #  1     ecut=    90.00 Ry     beta= 0.20
     Davidson diagonalization with overlap
     ethr =  1.00E-02,  avg # of iterations =  2.0

     Threshold (ethr) on eigenvalues was too large:
     Diagonalizing with lowered threshold

     Davidson diagonalization with overlap
     ethr =  1.72E-04,  avg # of iterations =  4.3

     total cpu time spent up to now is        7.4 secs

     total energy              =    -658.47982630 Ry
     estimated scf accuracy    <       0.06017940 Ry

     total magnetization       =     4.92 Bohr mag/cell
     absolute magnetization    =     4.96 Bohr mag/cell

     iteration #  2     ecut=    90.00 Ry     beta= 0.20
     Davidson diagonalization with overlap
     ethr =  1.88E-04,  avg # of iterations =  1.3

     total cpu time spent up to now is        9.6 secs

     total energy              =    -658.49738521 Ry
     estimated scf accuracy    <       0.02384231 Ry

     total magnetization       =     4.89 Bohr mag/cell
     absolute magnetization    =     4.95 Bohr mag/cell

     iteration #  3     ecut=    90.00 Ry     beta= 0.20
     Davidson diagonalization with overlap
     ethr =  7.45E-05,  avg # of iterations =  1.5

     negative rho (up, down):  0.000E+00 7.893E-05

     total cpu time spent up to now is       11.9 secs

     total energy              =    -658.51103495 Ry
     estimated scf accuracy    <       0.00967937 Ry

     total magnetization       =     4.80 Bohr mag/cell
     absolute magnetization    =     4.90 Bohr mag/cell

     iteration #  4     ecut=    90.00 Ry     beta= 0.20
     Davidson diagonalization with overlap
     ethr =  3.02E-05,  avg # of iterations =  2.0

     negative rho (up, down):  0.000E+00 7.701E-05

     total cpu time spent up to now is       14.4 secs

     total energy              =    -658.51378264 Ry
     estimated scf accuracy    <       0.00131144 Ry

     total magnetization       =     4.57 Bohr mag/cell
     absolute magnetization    =     4.74 Bohr mag/cell

     iteration #  5     ecut=    90.00 Ry     beta= 0.20
     Davidson diagonalization with overlap
     ethr =  4.10E-06,  avg # of iterations =  3.0

     negative rho (up, down):  0.000E+00 7.313E-05

     total cpu time spent up to now is       16.9 secs

     total energy              =    -658.51400600 Ry
     estimated scf accuracy    <       0.00072902 Ry

     total magnetization       =     4.57 Bohr mag/cell
     absolute magnetization    =     4.75 Bohr mag/cell

     iteration #  6     ecut=    90.00 Ry     beta= 0.20
     Davidson diagonalization with overlap
     ethr =  2.28E-06,  avg # of iterations =  1.4

     negative rho (up, down):  0.000E+00 4.658E-05

     total cpu time spent up to now is       19.2 secs

     total energy              =    -658.51418482 Ry
     estimated scf accuracy    <       0.00057064 Ry

     total magnetization       =     4.56 Bohr mag/cell
     absolute magnetization    =     4.74 Bohr mag/cell

     iteration #  7     ecut=    90.00 Ry     beta= 0.20
     Davidson diagonalization with overlap
     ethr =  1.78E-06,  avg # of iterations =  2.0

     negative rho (up, down):  0.000E+00 4.581E-05

     total cpu time spent up to now is       21.7 secs

     total energy              =    -658.51480216 Ry
     estimated scf accuracy    <       0.00027311 Ry

     total magnetization       =     4.42 Bohr mag/cell
     absolute magnetization    =     4.60 Bohr mag/cell

     iteration #  8     ecut=    90.00 Ry     beta= 0.20
     Davidson diagonalization with overlap
     ethr =  8.53E-07,  avg # of iterations =  1.5

     negative rho (up, down):  0.000E+00 5.464E-05

     total cpu time spent up to now is       24.0 secs

     total energy              =    -658.51388791 Ry
     estimated scf accuracy    <       0.00022929 Ry

     total magnetization       =     4.39 Bohr mag/cell
     absolute magnetization    =     4.58 Bohr mag/cell

     iteration #  9     ecut=    90.00 Ry     beta= 0.20
     Davidson diagonalization with overlap
     ethr =  7.17E-07,  avg # of iterations =  2.0

     negative rho (up, down):  0.000E+00 3.292E-05

     total cpu time spent up to now is       26.6 secs

     total energy              =    -658.51324732 Ry
     estimated scf accuracy    <       0.00027624 Ry

     total magnetization       =     4.54 Bohr mag/cell
     absolute magnetization    =     4.73 Bohr mag/cell

     iteration # 10     ecut=    90.00 Ry     beta= 0.20
     Davidson diagonalization with overlap
     ethr =  7.17E-07,  avg # of iterations =  3.3

     negative rho (up, down):  0.000E+00 3.117E-05

     total cpu time spent up to now is       29.6 secs

     total energy              =    -658.51541693 Ry
     estimated scf accuracy    <       0.00013988 Ry

     total magnetization       =     4.23 Bohr mag/cell
     absolute magnetization    =     4.41 Bohr mag/cell

     iteration # 11     ecut=    90.00 Ry     beta= 0.20
     Davidson diagonalization with overlap
     ethr =  4.37E-07,  avg # of iterations =  2.0

     negative rho (up, down):  0.000E+00 3.432E-05

     total cpu time spent up to now is       32.0 secs

     total energy              =    -658.51533553 Ry
     estimated scf accuracy    <       0.00005013 Ry

     total magnetization       =     4.17 Bohr mag/cell
     absolute magnetization    =     4.34 Bohr mag/cell

     iteration # 12     ecut=    90.00 Ry     beta= 0.20
     Davidson diagonalization with overlap
     ethr =  1.57E-07,  avg # of iterations =  2.0

     negative rho (up, down):  0.000E+00 3.352E-05

     total cpu time spent up to now is       34.5 secs

     total energy              =    -658.51531616 Ry
     estimated scf accuracy    <       0.00011684 Ry

     total magnetization       =     4.23 Bohr mag/cell
     absolute magnetization    =     4.40 Bohr mag/cell

     iteration # 13     ecut=    90.00 Ry     beta= 0.20
     Davidson diagonalization with overlap
     ethr =  1.57E-07,  avg # of iterations =  2.1

     negative rho (up, down):  0.000E+00 2.703E-05

     total cpu time spent up to now is       37.2 secs

     total energy              =    -658.51507190 Ry
     estimated scf accuracy    <       0.00015716 Ry

     total magnetization       =     4.23 Bohr mag/cell
     absolute magnetization    =     4.40 Bohr mag/cell

     iteration # 14     ecut=    90.00 Ry     beta= 0.20
     Davidson diagonalization with overlap
     ethr =  1.57E-07,  avg # of iterations =  3.8

     negative rho (up, down):  0.000E+00 2.546E-05

     total cpu time spent up to now is       40.3 secs

     total energy              =    -658.51549701 Ry
     estimated scf accuracy    <       0.00000539 Ry

     total magnetization       =     4.08 Bohr mag/cell
     absolute magnetization    =     4.24 Bohr mag/cell

     iteration # 15     ecut=    90.00 Ry     beta= 0.20
     Davidson diagonalization with overlap
     ethr =  1.68E-08,  avg # of iterations =  5.0

     negative rho (up, down):  0.000E+00 2.678E-05

     total cpu time spent up to now is       43.8 secs

     total energy              =    -658.51558190 Ry
     estimated scf accuracy    <       0.00004801 Ry

     total magnetization       =     4.03 Bohr mag/cell
     absolute magnetization    =     4.18 Bohr mag/cell

     iteration # 16     ecut=    90.00 Ry     beta= 0.20
     Davidson diagonalization with overlap
     ethr =  1.68E-08,  avg # of iterations =  3.8

     negative rho (up, down):  0.000E+00 2.765E-05

     total cpu time spent up to now is       46.8 secs

     total energy              =    -658.51558634 Ry
     estimated scf accuracy    <       0.00000269 Ry

     total magnetization       =     4.07 Bohr mag/cell
     absolute magnetization    =     4.23 Bohr mag/cell

     iteration # 17     ecut=    90.00 Ry     beta= 0.20
     Davidson diagonalization with overlap
     ethr =  8.40E-09,  avg # of iterations =  4.4

     negative rho (up, down):  0.000E+00 2.648E-05

     total cpu time spent up to now is       50.0 secs

     total energy              =    -658.51559231 Ry
     estimated scf accuracy    <       0.00001821 Ry

     total magnetization       =     4.10 Bohr mag/cell
     absolute magnetization    =     4.26 Bohr mag/cell

     iteration # 18     ecut=    90.00 Ry     beta= 0.20
     Davidson diagonalization with overlap
     ethr =  8.40E-09,  avg # of iterations =  4.1

     negative rho (up, down):  0.000E+00 2.696E-05

     total cpu time spent up to now is       53.2 secs

     total energy              =    -658.51562383 Ry
     estimated scf accuracy    <       0.00000113 Ry

     total magnetization       =     4.06 Bohr mag/cell
     absolute magnetization    =     4.22 Bohr mag/cell

     iteration # 19     ecut=    90.00 Ry     beta= 0.20
     Davidson diagonalization with overlap
     ethr =  3.53E-09,  avg # of iterations =  3.5

     negative rho (up, down):  0.000E+00 2.657E-05

     total cpu time spent up to now is       56.2 secs

     total energy              =    -658.51562957 Ry
     estimated scf accuracy    <       0.00000149 Ry

     total magnetization       =     4.08 Bohr mag/cell
     absolute magnetization    =     4.24 Bohr mag/cell

     iteration # 20     ecut=    90.00 Ry     beta= 0.20
     Davidson diagonalization with overlap
     ethr =  3.53E-09,  avg # of iterations =  2.7

     negative rho (up, down):  0.000E+00 2.672E-05

     total cpu time spent up to now is       58.9 secs

     total energy              =    -658.51563380 Ry
     estimated scf accuracy    <       0.00000022 Ry

     total magnetization       =     4.07 Bohr mag/cell
     absolute magnetization    =     4.23 Bohr mag/cell

     iteration # 21     ecut=    90.00 Ry     beta= 0.20
     Davidson diagonalization with overlap
     ethr =  6.77E-10,  avg # of iterations =  2.8

     negative rho (up, down):  0.000E+00 2.669E-05

     total cpu time spent up to now is       61.5 secs

     total energy              =    -658.51563451 Ry
     estimated scf accuracy    <       0.00000004 Ry

     total magnetization       =     4.07 Bohr mag/cell
     absolute magnetization    =     4.23 Bohr mag/cell

     iteration # 22     ecut=    90.00 Ry     beta= 0.20
     Davidson diagonalization with overlap
     ethr =  1.39E-10,  avg # of iterations =  3.0

     negative rho (up, down):  0.000E+00 2.676E-05

     total cpu time spent up to now is       64.3 secs

     total energy              =    -658.51563490 Ry
     estimated scf accuracy    <       0.00000006 Ry

     total magnetization       =     4.07 Bohr mag/cell
     absolute magnetization    =     4.23 Bohr mag/cell

     iteration # 23     ecut=    90.00 Ry     beta= 0.20
     Davidson diagonalization with overlap
     ethr =  1.39E-10,  avg # of iterations =  2.5

     negative rho (up, down):  0.000E+00 2.673E-05

     Magnetic moment per site:
     atom:    1    charge:   14.3715    magn:    2.0596    constr:    0.0000
     atom:    2    charge:   14.3714    magn:    2.0596    constr:    0.0000

     total cpu time spent up to now is       66.9 secs

     End of self-consistent calculation

     Number of k-points >= 100: set verbosity='high' to print the bands.

     the Fermi energy is    19.3634 ev

!    total energy              =    -658.51563533 Ry

     total all-electron energy =     -5091.108706 Ry
     estimated scf accuracy    <          8.5E-09 Ry
     smearing contrib. (-TS)   =      -0.00176312 Ry
     internal energy E=F+TS    =    -658.51387222 Ry

     The total energy is F=E-TS. E is the sum of the following terms:
     one-electron contribution =    -211.49095959 Ry
     hartree contribution      =     128.01216506 Ry
     xc contribution           =     -69.69707637 Ry
     ewald contribution        =    -353.02915697 Ry
     one-center paw contrib.   =    -152.30884435 Ry

     total magnetization       =     4.07 Bohr mag/cell
     absolute magnetization    =     4.23 Bohr mag/cell

     convergence has been achieved in  23 iterations

     negative rho (up, down):  0.000E+00 2.673E-05

     Forces acting on atoms (cartesian axes, Ry/au):

     atom    1 type  1   force =     0.00000086    0.00000003   -0.00000092
     atom    2 type  1   force =    -0.00000086   -0.00000003    0.00000092

     Total force =     0.000002     Total SCF correction =     0.000004
     SCF correction compared to forces is large: reduce conv_thr to get better values


     Computing stress (Cartesian axis) and pressure


     negative rho (up, down):  0.000E+00 2.673E-05
          total   stress  (Ry/bohr**3)                   (kbar)     P=      117.20
   0.00046268  -0.00006861   0.00000125           68.06      -10.09        0.18
  -0.00006861   0.00046061  -0.00000122          -10.09       67.76       -0.18
   0.00000125  -0.00000122   0.00146687            0.18       -0.18      215.78


     BFGS Geometry Optimization
     Energy error            =      0.0E+00
     Gradient error          =      9.2E-07
     Cell gradient error     =      1.5E-03


     number of scf cycles    =   1
     number of bfgs steps    =   0

     enthalpy new            =    -658.5156353346 Ry

     new trust radius        =       0.0889057501 bohr
     new conv_thr            =       0.0000000100 Ry

     new unit-cell volume =    155.86229 a.u.^3 (    23.09641 Ang^3 )
     density =      8.03006 g/cm^3

CELL_PARAMETERS (angstrom)
   2.450863097  -0.004155548   0.000075543
  -0.041578144   2.450515767  -0.000075151
  -0.001564748   0.001568979   3.845743985

ATOMIC_POSITIONS (angstrom)
Fe            0.0000004621        0.0000000171       -0.0000005038
Fe            1.2038596408        1.2239645823        1.9228726924



     Writing output data file ./pwscf.save/
     NEW-OLD atomic charge density approx. for the potential

     Check: negative core charge=   -0.000012

     negative rho (up, down):  0.000E+00 2.629E-05
     extrapolated charge   33.83220, renormalised to   32.00000
     Generating pointlists ...

     total cpu time spent up to now is       71.6 secs

     Self-consistent Calculation

     iteration #  1     ecut=    90.00 Ry     beta= 0.20
     Davidson diagonalization with overlap
     ethr =  1.00E-06,  avg # of iterations = 15.1

     negative rho (up, down):  0.000E+00 3.102E-05

     total cpu time spent up to now is       81.1 secs

     total energy              =    -656.22833283 Ry
     estimated scf accuracy    <       3.60879637 Ry

     total magnetization       =     2.11 Bohr mag/cell
     absolute magnetization    =     2.27 Bohr mag/cell

     iteration #  2     ecut=    90.00 Ry     beta= 0.20
     Davidson diagonalization with overlap
     ethr =  1.00E-02,  avg # of iterations =  2.9

     negative rho (up, down):  0.000E+00 2.909E-05

     total cpu time spent up to now is       83.9 secs

     total energy              =    -658.58532952 Ry
     estimated scf accuracy    <       2.17274781 Ry

     total magnetization       =     4.62 Bohr mag/cell
     absolute magnetization    =     4.73 Bohr mag/cell

     iteration #  3     ecut=    90.00 Ry     beta= 0.20
     Davidson diagonalization with overlap
     ethr =  6.79E-03,  avg # of iterations =  1.0

     negative rho (up, down):  0.000E+00 2.880E-05

     total cpu time spent up to now is       86.1 secs

     total energy              =    -658.51413011 Ry
     estimated scf accuracy    <       0.80233201 Ry

     total magnetization       =     4.55 Bohr mag/cell
     absolute magnetization    =     4.69 Bohr mag/cell

     iteration #  4     ecut=    90.00 Ry     beta= 0.20
     Davidson diagonalization with overlap
     ethr =  2.51E-03,  avg # of iterations =  1.4

     negative rho (up, down):  0.000E+00 2.954E-05

     total cpu time spent up to now is       88.3 secs

     total energy              =    -658.54713651 Ry
     estimated scf accuracy    <       0.20483829 Ry

     total magnetization       =     4.41 Bohr mag/cell
     absolute magnetization    =     4.55 Bohr mag/cell

     iteration #  5     ecut=    90.00 Ry     beta= 0.20
     Davidson diagonalization with overlap
     ethr =  6.40E-04,  avg # of iterations =  1.3

     negative rho (up, down):  0.000E+00 2.974E-05

     total cpu time spent up to now is       90.5 secs

     total energy              =    -658.55093613 Ry
     estimated scf accuracy    <       0.16156255 Ry

     total magnetization       =     4.38 Bohr mag/cell
     absolute magnetization    =     4.53 Bohr mag/cell

     iteration #  6     ecut=    90.00 Ry     beta= 0.20
     Davidson diagonalization with overlap
     ethr =  5.05E-04,  avg # of iterations =  1.0

     negative rho (up, down):  0.000E+00 2.986E-05

     total cpu time spent up to now is       92.7 secs

     total energy              =    -658.55329158 Ry
     estimated scf accuracy    <       0.15594795 Ry

     total magnetization       =     4.37 Bohr mag/cell
     absolute magnetization    =     4.53 Bohr mag/cell

     iteration #  7     ecut=    90.00 Ry     beta= 0.20
     Davidson diagonalization with overlap
     ethr =  4.87E-04,  avg # of iterations =  1.0

     negative rho (up, down):  0.000E+00 3.038E-05

     total cpu time spent up to now is       94.9 secs

     total energy              =    -658.54463625 Ry
     estimated scf accuracy    <       0.16342215 Ry

     total magnetization       =     4.38 Bohr mag/cell
     absolute magnetization    =     4.54 Bohr mag/cell

     iteration #  8     ecut=    90.00 Ry     beta= 0.20
     Davidson diagonalization with overlap
     ethr =  4.87E-04,  avg # of iterations =  1.0

     negative rho (up, down):  0.000E+00 3.144E-05

     total cpu time spent up to now is       97.1 secs

     total energy              =    -658.51833917 Ry
     estimated scf accuracy    <       0.11897017 Ry

     total magnetization       =     4.34 Bohr mag/cell
     absolute magnetization    =     4.52 Bohr mag/cell

     iteration #  9     ecut=    90.00 Ry     beta= 0.20
     Davidson diagonalization with overlap
     ethr =  3.72E-04,  avg # of iterations =  1.6

     negative rho (up, down):  0.000E+00 3.268E-05

     total cpu time spent up to now is       99.3 secs

     total energy              =    -658.51906401 Ry
     estimated scf accuracy    <       0.02289955 Ry

     total magnetization       =     4.32 Bohr mag/cell
     absolute magnetization    =     4.51 Bohr mag/cell

     iteration # 10     ecut=    90.00 Ry     beta= 0.20
     Davidson diagonalization with overlap
     ethr =  7.16E-05,  avg # of iterations =  2.0

     negative rho (up, down):  0.000E+00 3.345E-05

     total cpu time spent up to now is      101.7 secs

     total energy              =    -658.52099901 Ry
     estimated scf accuracy    <       0.00236449 Ry

     total magnetization       =     4.32 Bohr mag/cell
     absolute magnetization    =     4.52 Bohr mag/cell

     iteration # 11     ecut=    90.00 Ry     beta= 0.20
     Davidson diagonalization with overlap
     ethr =  7.39E-06,  avg # of iterations =  2.9

     negative rho (up, down):  0.000E+00 3.083E-05

     total cpu time spent up to now is      104.3 secs

     total energy              =    -658.52118968 Ry
     estimated scf accuracy    <       0.00043580 Ry

     total magnetization       =     4.33 Bohr mag/cell
     absolute magnetization    =     4.52 Bohr mag/cell

     iteration # 12     ecut=    90.00 Ry     beta= 0.20
     Davidson diagonalization with overlap
     ethr =  1.36E-06,  avg # of iterations =  3.8

     negative rho (up, down):  0.000E+00 4.942E-05

     total cpu time spent up to now is      107.4 secs

     total energy              =    -658.52099047 Ry
     estimated scf accuracy    <       0.00118376 Ry

     total magnetization       =     4.28 Bohr mag/cell
     absolute magnetization    =     4.47 Bohr mag/cell

     iteration # 13     ecut=    90.00 Ry     beta= 0.20
     Davidson diagonalization with overlap
     ethr =  1.36E-06,  avg # of iterations =  2.2

     negative rho (up, down):  0.000E+00 5.155E-05

     total cpu time spent up to now is      109.9 secs

     total energy              =    -658.52155969 Ry
     estimated scf accuracy    <       0.00009390 Ry

     total magnetization       =     4.42 Bohr mag/cell
     absolute magnetization    =     4.61 Bohr mag/cell

     iteration # 14     ecut=    90.00 Ry     beta= 0.20
     Davidson diagonalization with overlap
     ethr =  2.93E-07,  avg # of iterations =  3.5

     negative rho (up, down):  0.000E+00 5.088E-05

     total cpu time spent up to now is      112.8 secs

     total energy              =    -658.52159288 Ry
     estimated scf accuracy    <       0.00014406 Ry

     total magnetization       =     4.44 Bohr mag/cell
     absolute magnetization    =     4.63 Bohr mag/cell

     iteration # 15     ecut=    90.00 Ry     beta= 0.20
     Davidson diagonalization with overlap
     ethr =  2.93E-07,  avg # of iterations =  1.0

     negative rho (up, down):  0.000E+00 5.100E-05

     total cpu time spent up to now is      115.0 secs

     total energy              =    -658.52157067 Ry
     estimated scf accuracy    <       0.00010678 Ry

     total magnetization       =     4.43 Bohr mag/cell
     absolute magnetization    =     4.63 Bohr mag/cell

     iteration # 16     ecut=    90.00 Ry     beta= 0.20
     Davidson diagonalization with overlap
     ethr =  2.93E-07,  avg # of iterations =  1.0

     negative rho (up, down):  0.000E+00 4.641E-05

     total cpu time spent up to now is      117.2 secs

     total energy              =    -658.52153189 Ry
     estimated scf accuracy    <       0.00008088 Ry

     total magnetization       =     4.43 Bohr mag/cell
     absolute magnetization    =     4.62 Bohr mag/cell

     iteration # 17     ecut=    90.00 Ry     beta= 0.20
     Davidson diagonalization with overlap
     ethr =  2.53E-07,  avg # of iterations =  2.0

     negative rho (up, down):  0.000E+00 5.061E-05

     total cpu time spent up to now is      119.8 secs

     total energy              =    -658.52152342 Ry
     estimated scf accuracy    <       0.00004426 Ry

     total magnetization       =     4.40 Bohr mag/cell
     absolute magnetization    =     4.60 Bohr mag/cell

     iteration # 18     ecut=    90.00 Ry     beta= 0.20
     Davidson diagonalization with overlap
     ethr =  1.38E-07,  avg # of iterations =  2.4

     negative rho (up, down):  0.000E+00 4.954E-05

     total cpu time spent up to now is      122.5 secs

     total energy              =    -658.52158315 Ry
     estimated scf accuracy    <       0.00002729 Ry

     total magnetization       =     4.44 Bohr mag/cell
     absolute magnetization    =     4.65 Bohr mag/cell

     iteration # 19     ecut=    90.00 Ry     beta= 0.20
     Davidson diagonalization with overlap
     ethr =  8.53E-08,  avg # of iterations =  1.5

     negative rho (up, down):  0.000E+00 5.121E-05

     total cpu time spent up to now is      124.7 secs

     total energy              =    -658.52158358 Ry
     estimated scf accuracy    <       0.00001217 Ry

     total magnetization       =     4.43 Bohr mag/cell
     absolute magnetization    =     4.63 Bohr mag/cell

     iteration # 20     ecut=    90.00 Ry     beta= 0.20
     Davidson diagonalization with overlap
     ethr =  3.80E-08,  avg # of iterations =  2.4

     negative rho (up, down):  0.000E+00 5.223E-05

     total cpu time spent up to now is      127.3 secs

     total energy              =    -658.52159144 Ry
     estimated scf accuracy    <       0.00000068 Ry

     total magnetization       =     4.45 Bohr mag/cell
     absolute magnetization    =     4.65 Bohr mag/cell

     iteration # 21     ecut=    90.00 Ry     beta= 0.20
     Davidson diagonalization with overlap
     ethr =  2.14E-09,  avg # of iterations =  4.8

     negative rho (up, down):  0.000E+00 5.292E-05

     total cpu time spent up to now is      130.6 secs

     total energy              =    -658.52158956 Ry
     estimated scf accuracy    <       0.00000017 Ry

     total magnetization       =     4.46 Bohr mag/cell
     absolute magnetization    =     4.66 Bohr mag/cell

     iteration # 22     ecut=    90.00 Ry     beta= 0.20
     Davidson diagonalization with overlap
     ethr =  5.28E-10,  avg # of iterations =  5.2

     negative rho (up, down):  0.000E+00 5.240E-05

     total cpu time spent up to now is      134.0 secs

     total energy              =    -658.52159447 Ry
     estimated scf accuracy    <       0.00000039 Ry

     total magnetization       =     4.47 Bohr mag/cell
     absolute magnetization    =     4.68 Bohr mag/cell

     iteration # 23     ecut=    90.00 Ry     beta= 0.20
     Davidson diagonalization with overlap
     ethr =  5.28E-10,  avg # of iterations =  3.7

     negative rho (up, down):  0.000E+00 5.223E-05

     total cpu time spent up to now is      137.0 secs

     total energy              =    -658.52159565 Ry
     estimated scf accuracy    <       0.00000001 Ry

     total magnetization       =     4.46 Bohr mag/cell
     absolute magnetization    =     4.67 Bohr mag/cell

     iteration # 24     ecut=    90.00 Ry     beta= 0.20
     Davidson diagonalization with overlap
     ethr =  3.51E-11,  avg # of iterations =  5.1

     negative rho (up, down):  0.000E+00 5.231E-05

     Magnetic moment per site:
     atom:    1    charge:   14.3051    magn:    2.2631    constr:    0.0000
     atom:    2    charge:   14.3053    magn:    2.2632    constr:    0.0000

     total cpu time spent up to now is      140.3 secs

     End of self-consistent calculation

     Number of k-points >= 100: set verbosity='high' to print the bands.

     the Fermi energy is    18.0331 ev

!    total energy              =    -658.52159600 Ry

     total all-electron energy =     -5091.114667 Ry
     estimated scf accuracy    <          7.1E-09 Ry
     smearing contrib. (-TS)   =      -0.00149536 Ry
     internal energy E=F+TS    =    -658.52010064 Ry

     The total energy is F=E-TS. E is the sum of the following terms:
     one-electron contribution =    -222.50123260 Ry
     hartree contribution      =     132.05155134 Ry
     xc contribution           =     -69.65406167 Ry
     ewald contribution        =    -346.11168346 Ry
     one-center paw contrib.   =    -152.30467425 Ry

     total magnetization       =     4.46 Bohr mag/cell
     absolute magnetization    =     4.67 Bohr mag/cell

     convergence has been achieved in  24 iterations

     negative rho (up, down):  0.000E+00 5.231E-05

     Forces acting on atoms (cartesian axes, Ry/au):

     atom    1 type  1   force =    -0.00000011   -0.00000000    0.00000049
     atom    2 type  1   force =     0.00000011    0.00000000   -0.00000049

     Total force =     0.000001     Total SCF correction =     0.000000


     Computing stress (Cartesian axis) and pressure


     negative rho (up, down):  0.000E+00 5.231E-05
          total   stress  (Ry/bohr**3)                   (kbar)     P=        7.84
  -0.00014838  -0.00007068   0.00000090          -21.83      -10.40        0.13
  -0.00007068  -0.00015056  -0.00000089          -10.40      -22.15       -0.13
   0.00000090  -0.00000089   0.00045888            0.13       -0.13       67.50

     Energy error            =      6.0E-03
     Gradient error          =      4.9E-07
     Cell gradient error     =      4.6E-04


     number of scf cycles    =   2
     number of bfgs steps    =   1

     enthalpy old            =    -658.5156353346 Ry
     enthalpy new            =    -658.5215960047 Ry

     CASE: enthalpy_new < enthalpy_old

     new trust radius        =       0.0449372812 bohr
     new conv_thr            =            1.0E-10 Ry

     new unit-cell volume =    157.46895 a.u.^3 (    23.33449 Ang^3 )
     density =      7.94813 g/cm^3

CELL_PARAMETERS (angstrom)
   2.441702899  -0.010310305   0.000154549
  -0.047592307   2.441261520  -0.000154760
  -0.001442231   0.001447260   3.914956511

ATOMIC_POSITIONS (angstrom)
Fe            0.0000004300        0.0000000160       -0.0000002057
Fe            1.1963337505        1.2161992216        1.9574783557



     Writing output data file ./pwscf.save/
     NEW-OLD atomic charge density approx. for the potential

     Check: negative core charge=   -0.000011

     negative rho (up, down):  0.000E+00 4.752E-05
     extrapolated charge   32.32649, renormalised to   32.00000
     Generating pointlists ...

     total cpu time spent up to now is      145.1 secs

     Self-consistent Calculation

     iteration #  1     ecut=    90.00 Ry     beta= 0.20
     Davidson diagonalization with overlap
     ethr =  1.00E-06,  avg # of iterations =  9.3

     negative rho (up, down):  0.000E+00 5.242E-05

     total cpu time spent up to now is      151.3 secs

     total energy              =    -658.43672762 Ry
     estimated scf accuracy    <       0.13856105 Ry

     total magnetization       =     4.21 Bohr mag/cell
     absolute magnetization    =     4.41 Bohr mag/cell

     iteration #  2     ecut=    90.00 Ry     beta= 0.20
     Davidson diagonalization with overlap
     ethr =  4.33E-04,  avg # of iterations =  2.7

     negative rho (up, down):  0.000E+00 5.149E-05

     total cpu time spent up to now is      153.9 secs

     total energy              =    -658.52409973 Ry
     estimated scf accuracy    <       0.07189498 Ry

     total magnetization       =     4.56 Bohr mag/cell
     absolute magnetization    =     4.77 Bohr mag/cell

     iteration #  3     ecut=    90.00 Ry     beta= 0.20
     Davidson diagonalization with overlap
     ethr =  2.25E-04,  avg # of iterations =  1.5

     negative rho (up, down):  0.000E+00 4.988E-05

     total cpu time spent up to now is      156.1 secs

     total energy              =    -658.52230528 Ry
     estimated scf accuracy    <       0.02347167 Ry

     total magnetization       =     4.50 Bohr mag/cell
     absolute magnetization    =     4.72 Bohr mag/cell

     iteration #  4     ecut=    90.00 Ry     beta= 0.20
     Davidson diagonalization with overlap
     ethr =  7.33E-05,  avg # of iterations =  1.8

     negative rho (up, down):  0.000E+00 4.978E-05

     total cpu time spent up to now is      158.4 secs

     total energy              =    -658.52328448 Ry
     estimated scf accuracy    <       0.00642625 Ry

     total magnetization       =     4.47 Bohr mag/cell
     absolute magnetization    =     4.68 Bohr mag/cell

     iteration #  5     ecut=    90.00 Ry     beta= 0.20
     Davidson diagonalization with overlap
     ethr =  2.01E-05,  avg # of iterations =  1.3

     negative rho (up, down):  0.000E+00 4.962E-05

     total cpu time spent up to now is      160.7 secs

     total energy              =    -658.52295482 Ry
     estimated scf accuracy    <       0.00388432 Ry

     total magnetization       =     4.46 Bohr mag/cell
     absolute magnetization    =     4.68 Bohr mag/cell

     iteration #  6     ecut=    90.00 Ry     beta= 0.20
     Davidson diagonalization with overlap
     ethr =  1.21E-05,  avg # of iterations =  1.0

     negative rho (up, down):  0.000E+00 4.974E-05

     total cpu time spent up to now is      162.8 secs

     total energy              =    -658.52242974 Ry
     estimated scf accuracy    <       0.00173407 Ry

     total magnetization       =     4.45 Bohr mag/cell
     absolute magnetization    =     4.67 Bohr mag/cell

     iteration #  7     ecut=    90.00 Ry     beta= 0.20
     Davidson diagonalization with overlap
     ethr =  5.42E-06,  avg # of iterations =  2.0

     negative rho (up, down):  0.000E+00 4.947E-05

     total cpu time spent up to now is      165.3 secs

     total energy              =    -658.52280242 Ry
     estimated scf accuracy    <       0.00001129 Ry

     total magnetization       =     4.43 Bohr mag/cell
     absolute magnetization    =     4.64 Bohr mag/cell

     iteration #  8     ecut=    90.00 Ry     beta= 0.20
     Davidson diagonalization with overlap
     ethr =  3.53E-08,  avg # of iterations =  6.2

     negative rho (up, down):  0.000E+00 4.950E-05

     total cpu time spent up to now is      169.5 secs

     total energy              =    -658.52306153 Ry
     estimated scf accuracy    <       0.00105535 Ry

     total magnetization       =     4.41 Bohr mag/cell
     absolute magnetization    =     4.62 Bohr mag/cell

     iteration #  9     ecut=    90.00 Ry     beta= 0.20
     Davidson diagonalization with overlap
     ethr =  3.53E-08,  avg # of iterations =  2.0

     negative rho (up, down):  0.000E+00 5.061E-05

     total cpu time spent up to now is      171.9 secs

     total energy              =    -658.52247491 Ry
     estimated scf accuracy    <       0.00132130 Ry

     total magnetization       =     4.41 Bohr mag/cell
     absolute magnetization    =     4.62 Bohr mag/cell

     iteration # 10     ecut=    90.00 Ry     beta= 0.20
     Davidson diagonalization with overlap
     ethr =  3.53E-08,  avg # of iterations =  7.7

     negative rho (up, down):  0.000E+00 5.060E-05

     total cpu time spent up to now is      176.7 secs

     total energy              =    -658.52278803 Ry
     estimated scf accuracy    <       0.00005647 Ry

     total magnetization       =     4.42 Bohr mag/cell
     absolute magnetization    =     4.64 Bohr mag/cell

     iteration # 11     ecut=    90.00 Ry     beta= 0.20
     Davidson diagonalization with overlap
     ethr =  3.53E-08,  avg # of iterations =  1.8

     negative rho (up, down):  0.000E+00 4.998E-05

     total cpu time spent up to now is      179.0 secs

     total energy              =    -658.52276937 Ry
     estimated scf accuracy    <       0.00007480 Ry

     total magnetization       =     4.42 Bohr mag/cell
     absolute magnetization    =     4.64 Bohr mag/cell

     iteration # 12     ecut=    90.00 Ry     beta= 0.20
     Davidson diagonalization with overlap
     ethr =  3.53E-08,  avg # of iterations =  2.0

     negative rho (up, down):  0.000E+00 4.975E-05

     total cpu time spent up to now is      181.5 secs

     total energy              =    -658.52277085 Ry
     estimated scf accuracy    <       0.00002095 Ry

     total magnetization       =     4.42 Bohr mag/cell
     absolute magnetization    =     4.63 Bohr mag/cell

     iteration # 13     ecut=    90.00 Ry     beta= 0.20
     Davidson diagonalization with overlap
     ethr =  3.53E-08,  avg # of iterations =  1.0

     negative rho (up, down):  0.000E+00 4.947E-05

     total cpu time spent up to now is      183.7 secs

     total energy              =    -658.52277081 Ry
     estimated scf accuracy    <       0.00001093 Ry

     total magnetization       =     4.42 Bohr mag/cell
     absolute magnetization    =     4.63 Bohr mag/cell

     iteration # 14     ecut=    90.00 Ry     beta= 0.20
     Davidson diagonalization with overlap
     ethr =  3.41E-08,  avg # of iterations =  1.0

     negative rho (up, down):  0.000E+00 4.904E-05

     total cpu time spent up to now is      185.8 secs

     total energy              =    -658.52276873 Ry
     estimated scf accuracy    <       0.00000582 Ry

     total magnetization       =     4.41 Bohr mag/cell
     absolute magnetization    =     4.63 Bohr mag/cell

     iteration # 15     ecut=    90.00 Ry     beta= 0.20
     Davidson diagonalization with overlap
     ethr =  1.82E-08,  avg # of iterations =  2.0

     negative rho (up, down):  0.000E+00 4.897E-05

     total cpu time spent up to now is      188.4 secs

     total energy              =    -658.52277007 Ry
     estimated scf accuracy    <       0.00000007 Ry

     total magnetization       =     4.41 Bohr mag/cell
     absolute magnetization    =     4.62 Bohr mag/cell

     iteration # 16     ecut=    90.00 Ry     beta= 0.20
     Davidson diagonalization with overlap
     ethr =  2.34E-10,  avg # of iterations =  6.6

     negative rho (up, down):  0.000E+00 4.910E-05

     total cpu time spent up to now is      192.5 secs

     total energy              =    -658.52277013 Ry
     estimated scf accuracy    <       0.00000039 Ry

     total magnetization       =     4.41 Bohr mag/cell
     absolute magnetization    =     4.62 Bohr mag/cell

     iteration # 17     ecut=    90.00 Ry     beta= 0.20
     Davidson diagonalization with overlap
     ethr =  2.34E-10,  avg # of iterations =  3.5

     negative rho (up, down):  0.000E+00 4.906E-05

     total cpu time spent up to now is      195.6 secs

     total energy              =    -658.52277025 Ry
     estimated scf accuracy    <       0.00000003 Ry

     total magnetization       =     4.41 Bohr mag/cell
     absolute magnetization    =     4.62 Bohr mag/cell

     iteration # 18     ecut=    90.00 Ry     beta= 0.20
     Davidson diagonalization with overlap
     ethr =  1.06E-10,  avg # of iterations =  2.0

     negative rho (up, down):  0.000E+00 4.907E-05

     total cpu time spent up to now is      198.0 secs

     total energy              =    -658.52277027 Ry
     estimated scf accuracy    <          9.2E-10 Ry

     total magnetization       =     4.41 Bohr mag/cell
     absolute magnetization    =     4.62 Bohr mag/cell

     iteration # 19     ecut=    90.00 Ry     beta= 0.20
     Davidson diagonalization with overlap
     ethr =  2.88E-12,  avg # of iterations =  3.8

     negative rho (up, down):  0.000E+00 4.908E-05

     total cpu time spent up to now is      200.9 secs

     total energy              =    -658.52277028 Ry
     estimated scf accuracy    <          6.7E-10 Ry

     total magnetization       =     4.41 Bohr mag/cell
     absolute magnetization    =     4.62 Bohr mag/cell

     iteration # 20     ecut=    90.00 Ry     beta= 0.20
     Davidson diagonalization with overlap
     ethr =  2.08E-12,  avg # of iterations =  2.0

     negative rho (up, down):  0.000E+00 4.908E-05

     total cpu time spent up to now is      203.4 secs

     total energy              =    -658.52277029 Ry
     estimated scf accuracy    <          1.1E-10 Ry

     total magnetization       =     4.41 Bohr mag/cell
     absolute magnetization    =     4.62 Bohr mag/cell

     iteration # 21     ecut=    90.00 Ry     beta= 0.20
     Davidson diagonalization with overlap
     ethr =  3.37E-13,  avg # of iterations =  5.4

     negative rho (up, down):  0.000E+00 4.908E-05

     total cpu time spent up to now is      207.0 secs

     total energy              =    -658.52277029 Ry
     estimated scf accuracy    <          1.0E-09 Ry

     total magnetization       =     4.41 Bohr mag/cell
     absolute magnetization    =     4.62 Bohr mag/cell

     iteration # 22     ecut=    90.00 Ry     beta= 0.20
     Davidson diagonalization with overlap
     ethr =  3.37E-13,  avg # of iterations =  4.4

     negative rho (up, down):  0.000E+00 4.909E-05

     Magnetic moment per site:
     atom:    1    charge:   14.2960    magn:    2.2393    constr:    0.0000
     atom:    2    charge:   14.2959    magn:    2.2393    constr:    0.0000

     total cpu time spent up to now is      210.3 secs

     End of self-consistent calculation

     Number of k-points >= 100: set verbosity='high' to print the bands.

     the Fermi energy is    17.7998 ev

!    total energy              =    -658.52277030 Ry

     total all-electron energy =     -5091.115841 Ry
     estimated scf accuracy    <          5.7E-12 Ry
     smearing contrib. (-TS)   =      -0.00126315 Ry
     internal energy E=F+TS    =    -658.52150715 Ry

     The total energy is F=E-TS. E is the sum of the following terms:
     one-electron contribution =    -224.48449723 Ry
     hartree contribution      =     132.77588688 Ry
     xc contribution           =     -69.63648706 Ry
     ewald contribution        =    -344.87233371 Ry
     one-center paw contrib.   =    -152.30407603 Ry

     total magnetization       =     4.41 Bohr mag/cell
     absolute magnetization    =     4.62 Bohr mag/cell

     convergence has been achieved in  22 iterations

     negative rho (up, down):  0.000E+00 4.909E-05

     Forces acting on atoms (cartesian axes, Ry/au):

     atom    1 type  1   force =    -0.00000011    0.00000000    0.00000018
     atom    2 type  1   force =     0.00000011   -0.00000000   -0.00000018

     Total force =     0.000000     Total SCF correction =     0.000000


     Computing stress (Cartesian axis) and pressure


     negative rho (up, down):  0.000E+00 4.909E-05
          total   stress  (Ry/bohr**3)                   (kbar)     P=      -19.46
  -0.00027476  -0.00008397   0.00000079          -40.42      -12.35        0.12
  -0.00008397  -0.00027734  -0.00000079          -12.35      -40.80       -0.12
   0.00000079  -0.00000079   0.00015523            0.12       -0.12       22.84

     Energy error            =      1.2E-03
     Gradient error          =      1.8E-07
     Cell gradient error     =      2.8E-04


     number of scf cycles    =   3
     number of bfgs steps    =   2

     enthalpy old            =    -658.5215960047 Ry
     enthalpy new            =    -658.5227703012 Ry

     CASE: enthalpy_new < enthalpy_old

     new trust radius        =       0.0665546452 bohr
     new conv_thr            =            1.0E-10 Ry

     new unit-cell volume =    157.06272 a.u.^3 (    23.27429 Ang^3 )
     density =      7.96869 g/cm^3

CELL_PARAMETERS (angstrom)
   2.407202309  -0.025742137   0.000320090
  -0.062495527   2.406527481  -0.000321648
  -0.001178161   0.001184661   4.018774928

ATOMIC_POSITIONS (angstrom)
Fe            0.0000003735        0.0000000172        0.0000001541
Fe            1.1717639373        1.1909849852        2.0093865311



     Writing output data file ./pwscf.save/
     NEW-OLD atomic charge density approx. for the potential

     Check: negative core charge=   -0.000010

     negative rho (up, down):  0.000E+00 4.462E-05
     extrapolated charge   31.91724, renormalised to   32.00000
     Generating pointlists ...

     total cpu time spent up to now is      215.0 secs

     Self-consistent Calculation

     iteration #  1     ecut=    90.00 Ry     beta= 0.20
     Davidson diagonalization with overlap
     ethr =  1.00E-06,  avg # of iterations =  9.5

     negative rho (up, down):  0.000E+00 4.317E-05

     total cpu time spent up to now is      221.4 secs

     total energy              =    -658.51818585 Ry
     estimated scf accuracy    <       0.00961716 Ry

     total magnetization       =     4.43 Bohr mag/cell
     absolute magnetization    =     4.66 Bohr mag/cell

     iteration #  2     ecut=    90.00 Ry     beta= 0.20
     Davidson diagonalization with overlap
     ethr =  3.01E-05,  avg # of iterations =  2.8

     negative rho (up, down):  0.000E+00 4.358E-05

     total cpu time spent up to now is      224.0 secs

     total energy              =    -658.52397291 Ry
     estimated scf accuracy    <       0.00407694 Ry

     total magnetization       =     4.38 Bohr mag/cell
     absolute magnetization    =     4.59 Bohr mag/cell

     iteration #  3     ecut=    90.00 Ry     beta= 0.20
     Davidson diagonalization with overlap
     ethr =  1.27E-05,  avg # of iterations =  1.6

     negative rho (up, down):  0.000E+00 4.534E-05

     total cpu time spent up to now is      226.2 secs

     total energy              =    -658.52331800 Ry
     estimated scf accuracy    <       0.00149505 Ry

     total magnetization       =     4.38 Bohr mag/cell
     absolute magnetization    =     4.60 Bohr mag/cell

     iteration #  4     ecut=    90.00 Ry     beta= 0.20
     Davidson diagonalization with overlap
     ethr =  4.67E-06,  avg # of iterations =  2.7

     negative rho (up, down):  0.000E+00 4.516E-05

     total cpu time spent up to now is      228.8 secs

     total energy              =    -658.52430333 Ry
     estimated scf accuracy    <       0.00120408 Ry

     total magnetization       =     4.40 Bohr mag/cell
     absolute magnetization    =     4.62 Bohr mag/cell

     iteration #  5     ecut=    90.00 Ry     beta= 0.20
     Davidson diagonalization with overlap
     ethr =  3.76E-06,  avg # of iterations =  1.0

     negative rho (up, down):  0.000E+00 4.406E-05

     total cpu time spent up to now is      231.0 secs

     total energy              =    -658.52374319 Ry
     estimated scf accuracy    <       0.00143888 Ry

     total magnetization       =     4.40 Bohr mag/cell
     absolute magnetization    =     4.62 Bohr mag/cell

     iteration #  6     ecut=    90.00 Ry     beta= 0.20
     Davidson diagonalization with overlap
     ethr =  3.76E-06,  avg # of iterations =  2.0

     negative rho (up, down):  0.000E+00 4.280E-05

     total cpu time spent up to now is      233.5 secs

     total energy              =    -658.52404523 Ry
     estimated scf accuracy    <       0.00001618 Ry

     total magnetization       =     4.39 Bohr mag/cell
     absolute magnetization    =     4.61 Bohr mag/cell

     iteration #  7     ecut=    90.00 Ry     beta= 0.20
     Davidson diagonalization with overlap
     ethr =  5.05E-08,  avg # of iterations =  7.0

     negative rho (up, down):  0.000E+00 4.284E-05

     total cpu time spent up to now is      238.0 secs

     total energy              =    -658.52439564 Ry
     estimated scf accuracy    <       0.00172847 Ry

     total magnetization       =     4.38 Bohr mag/cell
     absolute magnetization    =     4.60 Bohr mag/cell

     iteration #  8     ecut=    90.00 Ry     beta= 0.20
     Davidson diagonalization with overlap
     ethr =  5.05E-08,  avg # of iterations =  1.0

     negative rho (up, down):  0.000E+00 4.440E-05

     total cpu time spent up to now is      240.2 secs

     total energy              =    -658.52362519 Ry
     estimated scf accuracy    <       0.00172423 Ry

     total magnetization       =     4.38 Bohr mag/cell
     absolute magnetization    =     4.60 Bohr mag/cell

     iteration #  9     ecut=    90.00 Ry     beta= 0.20
     Davidson diagonalization with overlap
     ethr =  5.05E-08,  avg # of iterations =  7.0

     negative rho (up, down):  0.000E+00 4.433E-05

     total cpu time spent up to now is      244.8 secs

     total energy              =    -658.52399803 Ry
     estimated scf accuracy    <       0.00002677 Ry

     total magnetization       =     4.39 Bohr mag/cell
     absolute magnetization    =     4.61 Bohr mag/cell

     iteration # 10     ecut=    90.00 Ry     beta= 0.20
     Davidson diagonalization with overlap
     ethr =  5.05E-08,  avg # of iterations =  1.0

     negative rho (up, down):  0.000E+00 4.407E-05

     total cpu time spent up to now is      246.9 secs

     total energy              =    -658.52399185 Ry
     estimated scf accuracy    <       0.00001585 Ry

     total magnetization       =     4.39 Bohr mag/cell
     absolute magnetization    =     4.61 Bohr mag/cell

     iteration # 11     ecut=    90.00 Ry     beta= 0.20
     Davidson diagonalization with overlap
     ethr =  4.95E-08,  avg # of iterations =  2.0

     negative rho (up, down):  0.000E+00 4.403E-05

     total cpu time spent up to now is      249.4 secs

     total energy              =    -658.52399485 Ry
     estimated scf accuracy    <       0.00000002 Ry

     total magnetization       =     4.39 Bohr mag/cell
     absolute magnetization    =     4.61 Bohr mag/cell

     iteration # 12     ecut=    90.00 Ry     beta= 0.20
     Davidson diagonalization with overlap
     ethr =  7.53E-11,  avg # of iterations =  7.7

     negative rho (up, down):  0.000E+00 4.406E-05

     total cpu time spent up to now is      253.9 secs

     total energy              =    -658.52399509 Ry
     estimated scf accuracy    <       0.00000002 Ry

     total magnetization       =     4.39 Bohr mag/cell
     absolute magnetization    =     4.61 Bohr mag/cell

     iteration # 13     ecut=    90.00 Ry     beta= 0.20
     Davidson diagonalization with overlap
     ethr =  7.20E-11,  avg # of iterations =  2.0

     negative rho (up, down):  0.000E+00 4.407E-05

     total cpu time spent up to now is      256.4 secs

     total energy              =    -658.52399515 Ry
     estimated scf accuracy    <          1.3E-09 Ry

     total magnetization       =     4.39 Bohr mag/cell
     absolute magnetization    =     4.61 Bohr mag/cell

     iteration # 14     ecut=    90.00 Ry     beta= 0.20
     Davidson diagonalization with overlap
     ethr =  4.05E-12,  avg # of iterations =  5.1

     negative rho (up, down):  0.000E+00 4.406E-05

     total cpu time spent up to now is      259.7 secs

     total energy              =    -658.52399519 Ry
     estimated scf accuracy    <          4.1E-09 Ry

     total magnetization       =     4.39 Bohr mag/cell
     absolute magnetization    =     4.61 Bohr mag/cell

     iteration # 15     ecut=    90.00 Ry     beta= 0.20
     Davidson diagonalization with overlap
     ethr =  4.05E-12,  avg # of iterations =  1.3

     negative rho (up, down):  0.000E+00 4.406E-05

     total cpu time spent up to now is      261.9 secs

     total energy              =    -658.52399522 Ry
     estimated scf accuracy    <          2.5E-09 Ry

     total magnetization       =     4.39 Bohr mag/cell
     absolute magnetization    =     4.61 Bohr mag/cell

     iteration # 16     ecut=    90.00 Ry     beta= 0.20
     Davidson diagonalization with overlap
     ethr =  4.05E-12,  avg # of iterations =  1.0

     negative rho (up, down):  0.000E+00 4.406E-05

     total cpu time spent up to now is      264.1 secs

     total energy              =    -658.52399523 Ry
     estimated scf accuracy    <          1.6E-09 Ry

     total magnetization       =     4.39 Bohr mag/cell
     absolute magnetization    =     4.61 Bohr mag/cell

     iteration # 17     ecut=    90.00 Ry     beta= 0.20
     Davidson diagonalization with overlap
     ethr =  4.05E-12,  avg # of iterations =  1.1

     negative rho (up, down):  0.000E+00 4.405E-05

     total cpu time spent up to now is      266.3 secs

     total energy              =    -658.52399524 Ry
     estimated scf accuracy    <          4.7E-10 Ry

     total magnetization       =     4.39 Bohr mag/cell
     absolute magnetization    =     4.61 Bohr mag/cell

     iteration # 18     ecut=    90.00 Ry     beta= 0.20
     Davidson diagonalization with overlap
     ethr =  1.46E-12,  avg # of iterations =  1.8

     negative rho (up, down):  0.000E+00 4.405E-05

     Magnetic moment per site:
     atom:    1    charge:   14.3028    magn:    2.2324    constr:    0.0000
     atom:    2    charge:   14.3027    magn:    2.2324    constr:    0.0000

     total cpu time spent up to now is      268.6 secs

     End of self-consistent calculation

     Number of k-points >= 100: set verbosity='high' to print the bands.

     the Fermi energy is    17.8605 ev

!    total energy              =    -658.52399526 Ry

     total all-electron energy =     -5091.117066 Ry
     estimated scf accuracy    <          7.8E-11 Ry
     smearing contrib. (-TS)   =      -0.00097128 Ry
     internal energy E=F+TS    =    -658.52302398 Ry

     The total energy is F=E-TS. E is the sum of the following terms:
     one-electron contribution =    -224.31250223 Ry
     hartree contribution      =     132.74733810 Ry
     xc contribution           =     -69.64612615 Ry
     ewald contribution        =    -345.00758736 Ry
     one-center paw contrib.   =    -152.30414633 Ry

     total magnetization       =     4.39 Bohr mag/cell
     absolute magnetization    =     4.61 Bohr mag/cell

     convergence has been achieved in  18 iterations

     negative rho (up, down):  0.000E+00 4.405E-05

     Forces acting on atoms (cartesian axes, Ry/au):

     atom    1 type  1   force =    -0.00000009    0.00000000   -0.00000014
     atom    2 type  1   force =     0.00000009   -0.00000000    0.00000014

     Total force =     0.000000     Total SCF correction =     0.000000


     Computing stress (Cartesian axis) and pressure


     negative rho (up, down):  0.000E+00 4.405E-05
          total   stress  (Ry/bohr**3)                   (kbar)     P=      -11.10
  -0.00006173  -0.00012458   0.00000060           -9.08      -18.33        0.09
  -0.00012458  -0.00006552  -0.00000060          -18.33       -9.64       -0.09
   0.00000060  -0.00000060  -0.00009908            0.09       -0.09      -14.57

     Energy error            =      1.2E-03
     Gradient error          =      1.4E-07
     Cell gradient error     =      1.2E-04


     number of scf cycles    =   4
     number of bfgs steps    =   3

     enthalpy old            =    -658.5227703012 Ry
     enthalpy new            =    -658.5239952607 Ry

     CASE: enthalpy_new < enthalpy_old

     new trust radius        =       0.0119407022 bohr
     new conv_thr            =            1.0E-10 Ry

     new unit-cell volume =    156.52773 a.u.^3 (    23.19502 Ang^3 )
     density =      7.99593 g/cm^3

CELL_PARAMETERS (angstrom)
   2.401903330  -0.035626811   0.000377364
  -0.072298147   2.401078674  -0.000379631
  -0.001100415   0.001106924   4.023710544

ATOMIC_POSITIONS (angstrom)
Fe            0.0000003251        0.0000000182        0.0000001053
Fe            1.1642520586        1.1832793755        2.0118540332



     Writing output data file ./pwscf.save/
     NEW-OLD atomic charge density approx. for the potential

     Check: negative core charge=   -0.000010

     negative rho (up, down):  0.000E+00 4.442E-05
     extrapolated charge   31.89063, renormalised to   32.00000
     Generating pointlists ...

     total cpu time spent up to now is      273.4 secs

     Self-consistent Calculation

     iteration #  1     ecut=    90.00 Ry     beta= 0.20
     Davidson diagonalization with overlap
     ethr =  1.00E-06,  avg # of iterations =  6.5

     negative rho (up, down):  0.000E+00 4.231E-05

     total cpu time spent up to now is      277.9 secs

     total energy              =    -658.51478704 Ry
     estimated scf accuracy    <       0.01499293 Ry

     total magnetization       =     4.43 Bohr mag/cell
     absolute magnetization    =     4.66 Bohr mag/cell

     iteration #  2     ecut=    90.00 Ry     beta= 0.20
     Davidson diagonalization with overlap
     ethr =  4.69E-05,  avg # of iterations =  2.8

     negative rho (up, down):  0.000E+00 4.278E-05

     total cpu time spent up to now is      280.5 secs

     total energy              =    -658.52438013 Ry
     estimated scf accuracy    <       0.00687712 Ry

     total magnetization       =     4.37 Bohr mag/cell
     absolute magnetization    =     4.58 Bohr mag/cell

     iteration #  3     ecut=    90.00 Ry     beta= 0.20
     Davidson diagonalization with overlap
     ethr =  2.15E-05,  avg # of iterations =  1.5

     negative rho (up, down):  0.000E+00 4.353E-05

     total cpu time spent up to now is      282.7 secs

     total energy              =    -658.52399972 Ry
     estimated scf accuracy    <       0.00244602 Ry

     total magnetization       =     4.38 Bohr mag/cell
     absolute magnetization    =     4.59 Bohr mag/cell

     iteration #  4     ecut=    90.00 Ry     beta= 0.20
     Davidson diagonalization with overlap
     ethr =  7.64E-06,  avg # of iterations =  2.0

     negative rho (up, down):  0.000E+00 4.367E-05

     total cpu time spent up to now is      285.1 secs

     total energy              =    -658.52413849 Ry
     estimated scf accuracy    <       0.00034724 Ry

     total magnetization       =     4.38 Bohr mag/cell
     absolute magnetization    =     4.60 Bohr mag/cell

     iteration #  5     ecut=    90.00 Ry     beta= 0.20
     Davidson diagonalization with overlap
     ethr =  1.09E-06,  avg # of iterations =  2.0

     negative rho (up, down):  0.000E+00 4.356E-05

     total cpu time spent up to now is      287.6 secs

     total energy              =    -658.52416805 Ry
     estimated scf accuracy    <       0.00005090 Ry

     total magnetization       =     4.39 Bohr mag/cell
     absolute magnetization    =     4.60 Bohr mag/cell

     iteration #  6     ecut=    90.00 Ry     beta= 0.20
     Davidson diagonalization with overlap
     ethr =  1.59E-07,  avg # of iterations =  2.5

     negative rho (up, down):  0.000E+00 4.329E-05

     total cpu time spent up to now is      290.1 secs

     total energy              =    -658.52417015 Ry
     estimated scf accuracy    <       0.00001362 Ry

     total magnetization       =     4.39 Bohr mag/cell
     absolute magnetization    =     4.60 Bohr mag/cell

     iteration #  7     ecut=    90.00 Ry     beta= 0.20
     Davidson diagonalization with overlap
     ethr =  4.25E-08,  avg # of iterations =  3.2

     negative rho (up, down):  0.000E+00 4.325E-05

     total cpu time spent up to now is      292.8 secs

     total energy              =    -658.52418029 Ry
     estimated scf accuracy    <       0.00000810 Ry

     total magnetization       =     4.39 Bohr mag/cell
     absolute magnetization    =     4.61 Bohr mag/cell

     iteration #  8     ecut=    90.00 Ry     beta= 0.20
     Davidson diagonalization with overlap
     ethr =  2.53E-08,  avg # of iterations =  2.0

     negative rho (up, down):  0.000E+00 4.313E-05

     total cpu time spent up to now is      295.2 secs

     total energy              =    -658.52417762 Ry
     estimated scf accuracy    <       0.00002166 Ry

     total magnetization       =     4.39 Bohr mag/cell
     absolute magnetization    =     4.61 Bohr mag/cell

     iteration #  9     ecut=    90.00 Ry     beta= 0.20
     Davidson diagonalization with overlap
     ethr =  2.53E-08,  avg # of iterations =  1.5

     negative rho (up, down):  0.000E+00 4.301E-05

     total cpu time spent up to now is      297.4 secs

     total energy              =    -658.52417387 Ry
     estimated scf accuracy    <       0.00000974 Ry

     total magnetization       =     4.39 Bohr mag/cell
     absolute magnetization    =     4.61 Bohr mag/cell

     iteration # 10     ecut=    90.00 Ry     beta= 0.20
     Davidson diagonalization with overlap
     ethr =  2.53E-08,  avg # of iterations =  2.0

     negative rho (up, down):  0.000E+00 4.300E-05

     total cpu time spent up to now is      299.9 secs

     total energy              =    -658.52417599 Ry
     estimated scf accuracy    <       0.00000015 Ry

     total magnetization       =     4.39 Bohr mag/cell
     absolute magnetization    =     4.60 Bohr mag/cell

     iteration # 11     ecut=    90.00 Ry     beta= 0.20
     Davidson diagonalization with overlap
     ethr =  4.67E-10,  avg # of iterations =  4.9

     negative rho (up, down):  0.000E+00 4.300E-05

     total cpu time spent up to now is      303.1 secs

     total energy              =    -658.52417610 Ry
     estimated scf accuracy    <       0.00000013 Ry

     total magnetization       =     4.39 Bohr mag/cell
     absolute magnetization    =     4.60 Bohr mag/cell

     iteration # 12     ecut=    90.00 Ry     beta= 0.20
     Davidson diagonalization with overlap
     ethr =  4.08E-10,  avg # of iterations =  1.0

     negative rho (up, down):  0.000E+00 4.303E-05

     total cpu time spent up to now is      305.3 secs

     total energy              =    -658.52417604 Ry
     estimated scf accuracy    <       0.00000008 Ry

     total magnetization       =     4.39 Bohr mag/cell
     absolute magnetization    =     4.60 Bohr mag/cell

     iteration # 13     ecut=    90.00 Ry     beta= 0.20
     Davidson diagonalization with overlap
     ethr =  2.57E-10,  avg # of iterations =  2.0

     negative rho (up, down):  0.000E+00 4.300E-05

     total cpu time spent up to now is      307.9 secs

     total energy              =    -658.52417607 Ry
     estimated scf accuracy    <       0.00000001 Ry

     total magnetization       =     4.39 Bohr mag/cell
     absolute magnetization    =     4.60 Bohr mag/cell

     iteration # 14     ecut=    90.00 Ry     beta= 0.20
     Davidson diagonalization with overlap
     ethr =  3.34E-11,  avg # of iterations =  2.6

     negative rho (up, down):  0.000E+00 4.297E-05

     total cpu time spent up to now is      310.4 secs

     total energy              =    -658.52417608 Ry
     estimated scf accuracy    <          2.7E-09 Ry

     total magnetization       =     4.39 Bohr mag/cell
     absolute magnetization    =     4.60 Bohr mag/cell

     iteration # 15     ecut=    90.00 Ry     beta= 0.20
     Davidson diagonalization with overlap
     ethr =  8.52E-12,  avg # of iterations =  2.4

     negative rho (up, down):  0.000E+00 4.299E-05

     total cpu time spent up to now is      313.1 secs

     total energy              =    -658.52417608 Ry
     estimated scf accuracy    <          1.9E-09 Ry

     total magnetization       =     4.39 Bohr mag/cell
     absolute magnetization    =     4.60 Bohr mag/cell

     iteration # 16     ecut=    90.00 Ry     beta= 0.20
     Davidson diagonalization with overlap
     ethr =  5.92E-12,  avg # of iterations =  2.9

     negative rho (up, down):  0.000E+00 4.299E-05

     total cpu time spent up to now is      315.9 secs

     total energy              =    -658.52417608 Ry
     estimated scf accuracy    <          2.0E-09 Ry

     total magnetization       =     4.39 Bohr mag/cell
     absolute magnetization    =     4.60 Bohr mag/cell

     iteration # 17     ecut=    90.00 Ry     beta= 0.20
     Davidson diagonalization with overlap
     ethr =  5.92E-12,  avg # of iterations =  2.0

     negative rho (up, down):  0.000E+00 4.298E-05

     total cpu time spent up to now is      318.3 secs

     total energy              =    -658.52417608 Ry
     estimated scf accuracy    <          2.5E-10 Ry

     total magnetization       =     4.39 Bohr mag/cell
     absolute magnetization    =     4.60 Bohr mag/cell

     iteration # 18     ecut=    90.00 Ry     beta= 0.20
     Davidson diagonalization with overlap
     ethr =  7.94E-13,  avg # of iterations =  2.2

     negative rho (up, down):  0.000E+00 4.298E-05

     Magnetic moment per site:
     atom:    1    charge:   14.3070    magn:    2.2299    constr:    0.0000
     atom:    2    charge:   14.3070    magn:    2.2299    constr:    0.0000

     total cpu time spent up to now is      320.8 secs

     End of self-consistent calculation

     Number of k-points >= 100: set verbosity='high' to print the bands.

     the Fermi energy is    17.9398 ev

!    total energy              =    -658.52417608 Ry

     total all-electron energy =     -5091.117247 Ry
     estimated scf accuracy    <          1.6E-11 Ry
     smearing contrib. (-TS)   =      -0.00095433 Ry
     internal energy E=F+TS    =    -658.52322175 Ry

     The total energy is F=E-TS. E is the sum of the following terms:
     one-electron contribution =    -223.71651294 Ry
     hartree contribution      =     132.53498583 Ry
     xc contribution           =     -69.65144039 Ry
     ewald contribution        =    -345.38595594 Ry
     one-center paw contrib.   =    -152.30429831 Ry

     total magnetization       =     4.39 Bohr mag/cell
     absolute magnetization    =     4.60 Bohr mag/cell

     convergence has been achieved in  18 iterations

     negative rho (up, down):  0.000E+00 4.298E-05

     Forces acting on atoms (cartesian axes, Ry/au):

     atom    1 type  1   force =    -0.00000008   -0.00000000   -0.00000009
     atom    2 type  1   force =     0.00000008    0.00000000    0.00000009

     Total force =     0.000000     Total SCF correction =     0.000000


     Computing stress (Cartesian axis) and pressure


     negative rho (up, down):  0.000E+00 4.298E-05
          total   stress  (Ry/bohr**3)                   (kbar)     P=       -4.15
   0.00000549  -0.00014809   0.00000045            0.81      -21.78        0.07
  -0.00014809   0.00000097  -0.00000045          -21.78        0.14       -0.07
   0.00000045  -0.00000045  -0.00009108            0.07       -0.07      -13.40

     Energy error            =      1.8E-04
     Gradient error          =      8.8E-08
     Cell gradient error     =      1.5E-04


     number of scf cycles    =   5
     number of bfgs steps    =   4

     enthalpy old            =    -658.5239952607 Ry
     enthalpy new            =    -658.5241760829 Ry

     CASE: enthalpy_new < enthalpy_old


     WARNING: bfgs curvature condition failed, Theta= 0.875
     new trust radius        =       0.0131895548 bohr
     new conv_thr            =            1.0E-10 Ry

     new unit-cell volume =    156.01821 a.u.^3 (    23.11951 Ang^3 )
     density =      8.02204 g/cm^3

CELL_PARAMETERS (angstrom)
   2.397437087  -0.047187010   0.000436504
  -0.083788813   2.396436928  -0.000439522
  -0.001022573   0.001029026   4.026840216

ATOMIC_POSITIONS (angstrom)
Fe            0.0000002712        0.0000000191        0.0000000545
Fe            1.1563125793        1.1751394533        2.0134185449



     Writing output data file ./pwscf.save/
     NEW-OLD atomic charge density approx. for the potential

     Check: negative core charge=   -0.000010

     negative rho (up, down):  0.000E+00 4.345E-05
     extrapolated charge   31.89550, renormalised to   32.00000
     Generating pointlists ...
     new r_m :   0.4083 (alat units)  1.8692 (a.u.) for type    1

     total cpu time spent up to now is      325.6 secs

     Self-consistent Calculation

     iteration #  1     ecut=    90.00 Ry     beta= 0.20
     Davidson diagonalization with overlap
     ethr =  1.00E-06,  avg # of iterations =  6.5

     negative rho (up, down):  0.000E+00 4.139E-05

     total cpu time spent up to now is      330.1 secs

     total energy              =    -658.51594639 Ry
     estimated scf accuracy    <       0.01342924 Ry

     total magnetization       =     4.42 Bohr mag/cell
     absolute magnetization    =     4.65 Bohr mag/cell

     iteration #  2     ecut=    90.00 Ry     beta= 0.20
     Davidson diagonalization with overlap
     ethr =  4.20E-05,  avg # of iterations =  2.7

     negative rho (up, down):  0.000E+00 4.183E-05

     total cpu time spent up to now is      332.8 secs

     total energy              =    -658.52456689 Ry
     estimated scf accuracy    <       0.00616627 Ry

     total magnetization       =     4.37 Bohr mag/cell
     absolute magnetization    =     4.58 Bohr mag/cell

     iteration #  3     ecut=    90.00 Ry     beta= 0.20
     Davidson diagonalization with overlap
     ethr =  1.93E-05,  avg # of iterations =  1.5

     negative rho (up, down):  0.000E+00 4.256E-05

     total cpu time spent up to now is      335.0 secs

     total energy              =    -658.52421345 Ry
     estimated scf accuracy    <       0.00219042 Ry

     total magnetization       =     4.37 Bohr mag/cell
     absolute magnetization    =     4.59 Bohr mag/cell

     iteration #  4     ecut=    90.00 Ry     beta= 0.20
     Davidson diagonalization with overlap
     ethr =  6.85E-06,  avg # of iterations =  2.0

     negative rho (up, down):  0.000E+00 4.271E-05

     total cpu time spent up to now is      337.4 secs

     total energy              =    -658.52434036 Ry
     estimated scf accuracy    <       0.00028101 Ry

     total magnetization       =     4.38 Bohr mag/cell
     absolute magnetization    =     4.60 Bohr mag/cell

     iteration #  5     ecut=    90.00 Ry     beta= 0.20
     Davidson diagonalization with overlap
     ethr =  8.78E-07,  avg # of iterations =  2.0

     negative rho (up, down):  0.000E+00 4.242E-05

     total cpu time spent up to now is      339.9 secs

     total energy              =    -658.52437619 Ry
     estimated scf accuracy    <       0.00001683 Ry

     total magnetization       =     4.38 Bohr mag/cell
     absolute magnetization    =     4.60 Bohr mag/cell

     iteration #  6     ecut=    90.00 Ry     beta= 0.20
     Davidson diagonalization with overlap
     ethr =  5.26E-08,  avg # of iterations =  3.9

     negative rho (up, down):  0.000E+00 4.235E-05

     total cpu time spent up to now is      342.9 secs

     total energy              =    -658.52440093 Ry
     estimated scf accuracy    <       0.00005518 Ry

     total magnetization       =     4.38 Bohr mag/cell
     absolute magnetization    =     4.60 Bohr mag/cell

     iteration #  7     ecut=    90.00 Ry     beta= 0.20
     Davidson diagonalization with overlap
     ethr =  5.26E-08,  avg # of iterations =  1.0

     negative rho (up, down):  0.000E+00 4.224E-05

     total cpu time spent up to now is      345.1 secs

     total energy              =    -658.52439541 Ry
     estimated scf accuracy    <       0.00004995 Ry

     total magnetization       =     4.38 Bohr mag/cell
     absolute magnetization    =     4.60 Bohr mag/cell

     iteration #  8     ecut=    90.00 Ry     beta= 0.20
     Davidson diagonalization with overlap
     ethr =  5.26E-08,  avg # of iterations =  1.0

     negative rho (up, down):  0.000E+00 4.189E-05

     total cpu time spent up to now is      347.3 secs

     total energy              =    -658.52437760 Ry
     estimated scf accuracy    <       0.00002784 Ry

     total magnetization       =     4.38 Bohr mag/cell
     absolute magnetization    =     4.60 Bohr mag/cell

     iteration #  9     ecut=    90.00 Ry     beta= 0.20
     Davidson diagonalization with overlap
     ethr =  5.26E-08,  avg # of iterations =  3.4

     negative rho (up, down):  0.000E+00 4.186E-05

     total cpu time spent up to now is      350.2 secs

     total energy              =    -658.52439944 Ry
     estimated scf accuracy    <       0.00002287 Ry

     total magnetization       =     4.38 Bohr mag/cell
     absolute magnetization    =     4.60 Bohr mag/cell

     iteration # 10     ecut=    90.00 Ry     beta= 0.20
     Davidson diagonalization with overlap
     ethr =  5.26E-08,  avg # of iterations =  1.0

     negative rho (up, down):  0.000E+00 4.211E-05

     total cpu time spent up to now is      352.4 secs

     total energy              =    -658.52438065 Ry
     estimated scf accuracy    <       0.00004062 Ry

     total magnetization       =     4.38 Bohr mag/cell
     absolute magnetization    =     4.60 Bohr mag/cell

     iteration # 11     ecut=    90.00 Ry     beta= 0.20
[...]
     unit-cell volume          =     151.6019 (a.u.)^3
     number of atoms/cell      =            2
     number of atomic types    =            1
     number of electrons       =        32.00
     number of Kohn-Sham states=           20
     kinetic-energy cutoff     =      90.0000  Ry
     charge density cutoff     =    1080.0000  Ry
     scf convergence threshold =      1.0E-10
     mixing beta               =       0.2000
     number of iterations used =            8  plain     mixing
     press convergence thresh. =      1.0E-01
     Exchange-correlation= SLA  PW   PBX  PBC
                           (   1   4   3   4   0   0   0)

     celldm(1)=   4.578501  celldm(2)=   0.000000  celldm(3)=   0.000000
     celldm(4)=   0.000000  celldm(5)=   0.000000  celldm(6)=   0.000000

     crystal axes: (cart. coord. in units of alat)
               a(1) = (   0.998807  -0.156876   0.000793 )  
               a(2) = (  -0.172093   0.996298  -0.000795 )  
               a(3) = (  -0.000971   0.000959   1.631580 )  

     reciprocal axes: (cart. coord. in units 2 pi/alat)
               b(1) = (  1.029114  0.177762  0.000508 )  
               b(2) = (  0.162044  1.031705 -0.000510 )  
               b(3) = ( -0.000421  0.000416  0.612902 )  


     PseudoPot. # 1 for Fe read from file:
     /opt/QEpot/SSSP_precision_pseudos/Fe.pbe-spn-kjpaw_psl.0.2.1.UPF
     MD5 check sum: e86618425769142926afa95317d90200
     Pseudo is Projector augmented-wave + core cor, Zval = 16.0
     Generated using "atomic" code by A. Dal Corso  v.5.0.99 svn rev. 10869
     Shape of augmentation charge: PSQ
     Using radial grid of 1191 points,  6 beta functions with: 
                l(1) =   0
                l(2) =   0
                l(3) =   1
                l(4) =   1
                l(5) =   2
                l(6) =   2
     Q(r) pseudized with 0 coefficients 


     atomic species   valence    mass     pseudopotential
        Fe            16.00    55.84500     Fe( 1.00)

     Starting magnetic structure 
     atomic species   magnetization
        Fe           0.150

     No symmetry found



   Cartesian axes

     site n.     atom                  positions (alat units)
         1           Fe  tau(   1) = (  -0.0000005  -0.0000001  -0.0000000  )
         2           Fe  tau(   2) = (   0.4128721   0.4201907   0.8157893  )

     number of k points=    63  Gaussian smearing, width (Ry)=  0.0100
                       cart. coord. in units 2pi/alat
        k(    1) = (   0.0000000   0.0000000   0.0000000), wk =   0.0080000
        k(    2) = (  -0.0000843   0.0000832   0.1225805), wk =   0.0160000
        k(    3) = (  -0.0001686   0.0001664   0.2451609), wk =   0.0160000
        k(    4) = (   0.0324088   0.2063410  -0.0001020), wk =   0.0160000
        k(    5) = (   0.0323245   0.2064243   0.1224784), wk =   0.0160000
        k(    6) = (   0.0322402   0.2065075   0.2450589), wk =   0.0160000
        k(    7) = (   0.0325773   0.2061746  -0.2452629), wk =   0.0160000
        k(    8) = (   0.0324931   0.2062578  -0.1226825), wk =   0.0160000
        k(    9) = (   0.0648175   0.4126821  -0.0002040), wk =   0.0160000
        k(   10) = (   0.0647333   0.4127653   0.1223764), wk =   0.0160000
        k(   11) = (   0.0646490   0.4128485   0.2449569), wk =   0.0160000
        k(   12) = (   0.0649861   0.4125156  -0.2453650), wk =   0.0160000
        k(   13) = (   0.0649018   0.4125989  -0.1227845), wk =   0.0160000
        k(   14) = (   0.2058227   0.0355523   0.0001016), wk =   0.0160000
        k(   15) = (   0.2057384   0.0356356   0.1226821), wk =   0.0160000
        k(   16) = (   0.2056541   0.0357188   0.2452625), wk =   0.0160000
        k(   17) = (   0.2059913   0.0353859  -0.2450593), wk =   0.0160000
        k(   18) = (   0.2059070   0.0354691  -0.1224789), wk =   0.0160000
        k(   19) = (   0.2382315   0.2418934  -0.0000004), wk =   0.0160000
        k(   20) = (   0.2381472   0.2419766   0.1225800), wk =   0.0160000
        k(   21) = (   0.2380629   0.2420598   0.2451605), wk =   0.0160000
        k(   22) = (   0.2384001   0.2417269  -0.2451613), wk =   0.0160000
        k(   23) = (   0.2383158   0.2418102  -0.1225809), wk =   0.0160000
        k(   24) = (   0.2706403   0.4482344  -0.0001024), wk =   0.0160000
        k(   25) = (   0.2705560   0.4483177   0.1224780), wk =   0.0160000
        k(   26) = (   0.2704717   0.4484009   0.2450585), wk =   0.0160000
        k(   27) = (   0.2708088   0.4480680  -0.2452634), wk =   0.0160000
        k(   28) = (   0.2707245   0.4481512  -0.1226829), wk =   0.0160000
        k(   29) = (   0.1410052  -0.3771297   0.0003056), wk =   0.0160000
        k(   30) = (   0.1409209  -0.3770465   0.1228861), wk =   0.0160000
        k(   31) = (   0.1408366  -0.3769633   0.2454666), wk =   0.0160000
        k(   32) = (   0.1411737  -0.3772962  -0.2448553), wk =   0.0160000
        k(   33) = (   0.1410895  -0.3772130  -0.1222748), wk =   0.0160000
        k(   34) = (   0.1734139  -0.1707887   0.0002036), wk =   0.0160000
        k(   35) = (   0.1733297  -0.1707055   0.1227841), wk =   0.0160000
        k(   36) = (   0.1732454  -0.1706222   0.2453645), wk =   0.0160000
        k(   37) = (   0.1735825  -0.1709551  -0.2449573), wk =   0.0160000
        k(   38) = (   0.1734982  -0.1708719  -0.1223768), wk =   0.0160000
        k(   39) = (   0.4116454   0.0711047   0.0002032), wk =   0.0160000
        k(   40) = (   0.4115611   0.0711879   0.1227837), wk =   0.0160000
        k(   41) = (   0.4114768   0.0712711   0.2453641), wk =   0.0160000
        k(   42) = (   0.4118140   0.0709383  -0.2449577), wk =   0.0160000
        k(   43) = (   0.4117297   0.0710215  -0.1223773), wk =   0.0160000
        k(   44) = (   0.4440542   0.2774457   0.0001012), wk =   0.0160000
        k(   45) = (   0.4439699   0.2775290   0.1226816), wk =   0.0160000
        k(   46) = (   0.4438856   0.2776122   0.2452621), wk =   0.0160000
        k(   47) = (   0.4442228   0.2772793  -0.2450597), wk =   0.0160000
        k(   48) = (   0.4441385   0.2773625  -0.1224793), wk =   0.0160000
        k(   49) = (   0.4764630   0.4837868  -0.0000008), wk =   0.0160000
        k(   50) = (   0.4763787   0.4838700   0.1225796), wk =   0.0160000
        k(   51) = (   0.4762944   0.4839532   0.2451601), wk =   0.0160000
        k(   52) = (   0.4766315   0.4836203  -0.2451618), wk =   0.0160000
        k(   53) = (   0.4765472   0.4837036  -0.1225813), wk =   0.0160000
        k(   54) = (   0.3468279  -0.3415774   0.0004072), wk =   0.0160000
        k(   55) = (   0.3467436  -0.3414942   0.1229877), wk =   0.0160000
        k(   56) = (   0.3466593  -0.3414109   0.2455682), wk =   0.0160000
        k(   57) = (   0.3469964  -0.3417438  -0.2447537), wk =   0.0160000
        k(   58) = (   0.3469122  -0.3416606  -0.1221732), wk =   0.0160000
        k(   59) = (   0.3792366  -0.1352363   0.0003052), wk =   0.0160000
        k(   60) = (   0.3791524  -0.1351531   0.1228857), wk =   0.0160000
        k(   61) = (   0.3790681  -0.1350699   0.2454661), wk =   0.0160000
        k(   62) = (   0.3794052  -0.1354028  -0.2448557), wk =   0.0160000
        k(   63) = (   0.3793209  -0.1353196  -0.1222752), wk =   0.0160000

     Dense  grid:    90825 G-vectors     FFT dimensions: (  50,  50,  80)

     Smooth grid:    17463 G-vectors     FFT dimensions: (  27,  27,  45)

     Estimated max dynamical RAM per process >     118.64 MB

     Estimated total dynamical RAM >     474.55 MB

     Check: negative core charge=   -0.000010
     Generating pointlists ...

     Initial potential from superposition of free atoms

     starting charge   31.99912, renormalised to   32.00000
     Starting wfcs are   26 randomized atomic wfcs
     Checking if some PAW data can be deallocated... 

     total cpu time spent up to now is     1537.7 secs

     Self-consistent Calculation

     iteration #  1     ecut=    90.00 Ry     beta= 0.20
     Davidson diagonalization with overlap
     c_bands:  1 eigenvalues not converged
     c_bands:  1 eigenvalues not converged
     c_bands:  1 eigenvalues not converged
     c_bands:  1 eigenvalues not converged
     c_bands:  1 eigenvalues not converged
     c_bands:  1 eigenvalues not converged
     c_bands:  1 eigenvalues not converged
     ethr =  1.00E-06,  avg # of iterations = 13.8

     total cpu time spent up to now is     1546.7 secs

     total energy              =    -658.52433261 Ry
     estimated scf accuracy    <       0.06418719 Ry

     total magnetization       =     4.13 Bohr mag/cell
     absolute magnetization    =     4.17 Bohr mag/cell

     iteration #  2     ecut=    90.00 Ry     beta= 0.20
     Davidson diagonalization with overlap
     ethr =  2.01E-04,  avg # of iterations =  1.8

     total cpu time spent up to now is     1549.1 secs

     total energy              =    -658.53359805 Ry
     estimated scf accuracy    <       0.01408105 Ry

     total magnetization       =     4.19 Bohr mag/cell
     absolute magnetization    =     4.25 Bohr mag/cell

     iteration #  3     ecut=    90.00 Ry     beta= 0.20
     Davidson diagonalization with overlap
     ethr =  4.40E-05,  avg # of iterations =  1.7

     negative rho (up, down):  0.000E+00 1.229E-05

     total cpu time spent up to now is     1551.5 secs

     total energy              =    -658.53867952 Ry
     estimated scf accuracy    <       0.00664868 Ry

     total magnetization       =     4.21 Bohr mag/cell
     absolute magnetization    =     4.29 Bohr mag/cell

     iteration #  4     ecut=    90.00 Ry     beta= 0.20
     Davidson diagonalization with overlap
     ethr =  2.08E-05,  avg # of iterations =  1.7

     negative rho (up, down):  0.000E+00 6.274E-05

     total cpu time spent up to now is     1553.8 secs

     total energy              =    -658.53808006 Ry
     estimated scf accuracy    <       0.02802838 Ry

     total magnetization       =     4.15 Bohr mag/cell
     absolute magnetization    =     4.28 Bohr mag/cell

     iteration #  5     ecut=    90.00 Ry     beta= 0.20
     Davidson diagonalization with overlap
     ethr =  2.08E-05,  avg # of iterations =  1.8

     negative rho (up, down):  0.000E+00 6.020E-05

     total cpu time spent up to now is     1556.3 secs

     total energy              =    -658.53992878 Ry
     estimated scf accuracy    <       0.00110779 Ry

     total magnetization       =     4.13 Bohr mag/cell
     absolute magnetization    =     4.34 Bohr mag/cell

     iteration #  6     ecut=    90.00 Ry     beta= 0.20
     Davidson diagonalization with overlap
     ethr =  3.46E-06,  avg # of iterations =  2.5

     negative rho (up, down):  0.000E+00 5.521E-05

     total cpu time spent up to now is     1558.9 secs

     total energy              =    -658.54088503 Ry
     estimated scf accuracy    <       0.00012087 Ry

     total magnetization       =     4.13 Bohr mag/cell
     absolute magnetization    =     4.35 Bohr mag/cell

     iteration #  7     ecut=    90.00 Ry     beta= 0.20
     Davidson diagonalization with overlap
     ethr =  3.78E-07,  avg # of iterations =  4.3

     negative rho (up, down):  0.000E+00 5.369E-05

     total cpu time spent up to now is     1561.9 secs

     total energy              =    -658.54105253 Ry
     estimated scf accuracy    <       0.00021888 Ry

     total magnetization       =     4.14 Bohr mag/cell
     absolute magnetization    =     4.37 Bohr mag/cell

     iteration #  8     ecut=    90.00 Ry     beta= 0.20
     Davidson diagonalization with overlap
     ethr =  3.78E-07,  avg # of iterations =  2.0

     negative rho (up, down):  0.000E+00 5.374E-05

     total cpu time spent up to now is     1564.5 secs

     total energy              =    -658.54110933 Ry
     estimated scf accuracy    <       0.00000733 Ry

     total magnetization       =     4.14 Bohr mag/cell
     absolute magnetization    =     4.37 Bohr mag/cell

     iteration #  9     ecut=    90.00 Ry     beta= 0.20
     Davidson diagonalization with overlap
     ethr =  2.29E-08,  avg # of iterations =  3.3

     negative rho (up, down):  0.000E+00 5.397E-05

     total cpu time spent up to now is     1567.2 secs

     total energy              =    -658.54110686 Ry
     estimated scf accuracy    <       0.00000297 Ry

     total magnetization       =     4.14 Bohr mag/cell
     absolute magnetization    =     4.38 Bohr mag/cell

     iteration # 10     ecut=    90.00 Ry     beta= 0.20
     Davidson diagonalization with overlap
     ethr =  9.28E-09,  avg # of iterations =  1.9

     negative rho (up, down):  0.000E+00 5.435E-05

     total cpu time spent up to now is     1569.6 secs

     total energy              =    -658.54109164 Ry
     estimated scf accuracy    <       0.00000147 Ry

     total magnetization       =     4.14 Bohr mag/cell
     absolute magnetization    =     4.38 Bohr mag/cell

     iteration # 11     ecut=    90.00 Ry     beta= 0.20
     Davidson diagonalization with overlap
     ethr =  4.58E-09,  avg # of iterations =  2.8

     negative rho (up, down):  0.000E+00 5.436E-05

     total cpu time spent up to now is     1572.3 secs

     total energy              =    -658.54109678 Ry
     estimated scf accuracy    <       0.00000007 Ry

     total magnetization       =     4.14 Bohr mag/cell
     absolute magnetization    =     4.38 Bohr mag/cell

     iteration # 12     ecut=    90.00 Ry     beta= 0.20
     Davidson diagonalization with overlap
     ethr =  2.10E-10,  avg # of iterations =  5.1

     negative rho (up, down):  0.000E+00 5.438E-05

     total cpu time spent up to now is     1575.8 secs

     total energy              =    -658.54109935 Ry
     estimated scf accuracy    <       0.00000001 Ry

     total magnetization       =     4.14 Bohr mag/cell
     absolute magnetization    =     4.38 Bohr mag/cell

     iteration # 13     ecut=    90.00 Ry     beta= 0.20
     Davidson diagonalization with overlap
     ethr =  3.49E-11,  avg # of iterations =  2.6

     negative rho (up, down):  0.000E+00 5.438E-05

     total cpu time spent up to now is     1578.5 secs

     total energy              =    -658.54110170 Ry
     estimated scf accuracy    <          2.9E-09 Ry

     total magnetization       =     4.14 Bohr mag/cell
     absolute magnetization    =     4.38 Bohr mag/cell

     iteration # 14     ecut=    90.00 Ry     beta= 0.20
     Davidson diagonalization with overlap
     ethr =  9.20E-12,  avg # of iterations =  1.9

     negative rho (up, down):  0.000E+00 5.438E-05

     total cpu time spent up to now is     1580.9 secs

     total energy              =    -658.54110276 Ry
     estimated scf accuracy    <          3.6E-10 Ry

     total magnetization       =     4.14 Bohr mag/cell
     absolute magnetization    =     4.38 Bohr mag/cell

     iteration # 15     ecut=    90.00 Ry     beta= 0.20
     Davidson diagonalization with overlap
     ethr =  1.13E-12,  avg # of iterations =  4.4

     negative rho (up, down):  0.000E+00 5.442E-05

     Magnetic moment per site:
     atom:    1    charge:   14.0696    magn:    2.1059    constr:    0.0000
     atom:    2    charge:   14.0696    magn:    2.1059    constr:    0.0000

     total cpu time spent up to now is     1584.0 secs

     End of self-consistent calculation

     Number of k-points >= 100: set verbosity='high' to print the bands.

     the Fermi energy is    18.5265 ev

!    total energy              =    -658.54110423 Ry

     total all-electron energy =     -5091.134175 Ry
     estimated scf accuracy    <          6.1E-11 Ry
     smearing contrib. (-TS)   =      -0.00136501 Ry
     internal energy E=F+TS    =    -658.53973923 Ry

     The total energy is F=E-TS. E is the sum of the following terms:
     one-electron contribution =    -217.00765111 Ry
     hartree contribution      =     129.85618193 Ry
     xc contribution           =     -69.63914139 Ry
     ewald contribution        =    -349.44108100 Ry
     one-center paw contrib.   =    -152.30804766 Ry

     total magnetization       =     4.14 Bohr mag/cell
     absolute magnetization    =     4.38 Bohr mag/cell

     convergence has been achieved in  15 iterations

     negative rho (up, down):  0.000E+00 5.442E-05

     Forces acting on atoms (cartesian axes, Ry/au):

     atom    1 type  1   force =     0.00000297   -0.00000439    0.00000128
     atom    2 type  1   force =    -0.00000297    0.00000439   -0.00000128

     Total force =     0.000008     Total SCF correction =     0.000009
     SCF correction compared to forces is large: reduce conv_thr to get better values


     Computing stress (Cartesian axis) and pressure


     negative rho (up, down):  0.000E+00 5.442E-05
          total   stress  (Ry/bohr**3)                   (kbar)     P=       11.52
   0.00007660  -0.00007490  -0.00000057           11.27      -11.02       -0.08
  -0.00007490   0.00007432   0.00000056          -11.02       10.93        0.08
  -0.00000057   0.00000056   0.00008400           -0.08        0.08       12.36


     init_run     :      4.04s CPU      4.36s WALL (       2 calls)
     electrons    :   1307.54s CPU   1451.13s WALL (      28 calls)
     update_pot   :     31.05s CPU     31.93s WALL (      26 calls)
     forces       :     26.21s CPU     27.20s WALL (      28 calls)
     stress       :     59.89s CPU     61.89s WALL (      28 calls)

     Called by init_run:
     wfcinit      :      1.38s CPU      1.53s WALL (       2 calls)
     potinit      :      0.97s CPU      1.02s WALL (       2 calls)
     hinit0       :      1.42s CPU      1.48s WALL (       2 calls)

     Called by electrons:
     c_bands      :    852.77s CPU    923.90s WALL (     518 calls)
     sum_band     :    272.61s CPU    315.63s WALL (     518 calls)
     v_of_rho     :     34.85s CPU     36.93s WALL (     542 calls)
     newd         :     59.63s CPU     76.18s WALL (     542 calls)
     PAW_pot      :     95.55s CPU    108.16s WALL (     568 calls)
     mix_rho      :      2.58s CPU      2.86s WALL (     518 calls)

     Called by c_bands:
     init_us_2    :     14.76s CPU     15.55s WALL (  141120 calls)
     cegterg      :    812.98s CPU    883.26s WALL (   65268 calls)

     Called by *egterg:
     cdiaghg      :     73.22s CPU     75.05s WALL (  248911 calls)
     h_psi        :    502.52s CPU    564.04s WALL (  252943 calls)
     s_psi        :     35.80s CPU     38.43s WALL (  252943 calls)
     g_psi        :      4.31s CPU      4.37s WALL (  187423 calls)

     Called by h_psi:
     h_psi:calbec :     43.19s CPU     48.65s WALL (  252943 calls)
     vloc_psi     :    422.46s CPU    474.95s WALL (  252943 calls)
     add_vuspsi   :     34.58s CPU     38.19s WALL (  252943 calls)

     General routines
     calbec       :     63.42s CPU     70.66s WALL (  339127 calls)
     fft          :     10.43s CPU     12.50s WALL (   14648 calls)
     ffts         :      0.24s CPU      0.28s WALL (    2120 calls)
     fftw         :    459.40s CPU    516.10s WALL ( 8620116 calls)
     interpolate  :      1.09s CPU      1.26s WALL (    1084 calls)

     Parallel routines
     fft_scatt_xy :     55.33s CPU     61.89s WALL ( 8636884 calls)
     fft_scatt_yz :    163.50s CPU    185.21s WALL ( 8636884 calls)

     PWSCF        :  23m57.83s CPU  26m27.26s WALL


   This run was terminated on:  21: 7: 3  16May2022            

=------------------------------------------------------------------------------=
   JOB DONE.
=------------------------------------------------------------------------------=
Note: The following floating-point exceptions are signalling: IEEE_INVALID_FLAG IEEE_UNDERFLOW_FLAG IEEE_DENORMAL
Note: The following floating-point exceptions are signalling: IEEE_UNDERFLOW_FLAG IEEE_DENORMAL
Note: The following floating-point exceptions are signalling: IEEE_UNDERFLOW_FLAG IEEE_DENORMAL
Note: The following floating-point exceptions are signalling: IEEE_INVALID_FLAG IEEE_UNDERFLOW_FLAG IEEE_DENORMAL
