 # H2
  
           2  atoms
           1  atom types
 
      0.000000000000       2.572080000000  xlo xhi
      0.000000000000       2.482602568312  ylo yhi
      0.000000000000       4.125672011316  zlo zhi
     -0.672517668327      -0.181648194699      -0.417853393463  xy xz yz
 
Masses
 
            1   1.00800000              # H
 
Atoms # charge
 
         1    1   0.000000       -0.142977539658      -0.392135185042       4.089651754907
         2    1   0.000000        1.065216437173       0.906386335954       2.026811623577
