 # H2
  
           2  atoms
           1  atom types
 
      0.000000000000       2.408773333333  xlo xhi
      0.000000000000       2.241095253405  ylo yhi
      0.000000000000       3.941853948827  zlo zhi
     -0.882995490671       0.030374576511      -0.296419367150  xy xz yz
 
Masses
 
            1   1.00800000              # H
 
Atoms # charge
 
         1    1   0.000000       -0.775429715908       2.194462185935       0.044498825369
         2    1   0.000000        1.058061106179       0.788756323332       2.015421857928
