 # H2
  
           2  atoms
           1  atom types
 
      0.000000000000       2.408773333333  xlo xhi
      0.000000000000       2.283953181984  ylo yhi
      0.000000000000       3.941740560353  zlo zhi
     -0.885493095685       0.074054321698      -0.290167059311  xy xz yz
 
Masses
 
            1   1.00800000              # H
 
Atoms # charge
 
         1    1   0.000000        1.467453530823       2.251555803394       0.033856772364
         2    1   0.000000        0.915412274645       0.824928161869       2.004723110800
