 # H2
  
           2  atoms
           1  atom types
 
      0.000000000000       2.367946666667  xlo xhi
      0.000000000000       2.203818376909  ylo yhi
      0.000000000000       3.810959776377  zlo zhi
     -0.866230903268      -0.264201649187      -0.096674920770  xy xz yz
 
Masses
 
            1   1.00800000              # H
 
Atoms # charge
 
         1    1   0.000000       -0.138887390360      -0.073059459274       3.710721977547
         2    1   0.000000        0.913458467291       0.942516352864       1.805238278399
