 # H2
  
           2  atoms
           1  atom types
 
      0.000000000000       2.531253333333  xlo xhi
      0.000000000000       2.454715917125  ylo yhi
      0.000000000000       3.949092682018  zlo zhi
     -0.617748495524      -0.174069373517       0.036965551984  xy xz yz
 
Masses
 
            1   1.00800000              # H
 
Atoms # charge
 
         1    1   0.000000        2.503768113609       0.088641082700       0.008142705416
         2    1   0.000000        1.004466569236       1.184479000025       1.982685097332
