 # H2
  
           2  atoms
           1  atom types
 
      0.000000000000       2.572080000000  xlo xhi
      0.000000000000       2.446929091014  ylo yhi
      0.000000000000       3.919715505616  zlo zhi
     -0.792548768183       0.315654263083       0.403970730657  xy xz yz
 
Masses
 
            1   1.00800000              # H
 
Atoms # charge
 
         1    1   0.000000        2.043716985432       2.731670800312       3.919180346246
         2    1   0.000000        1.171047314774       1.156693542612       1.959318673723
