 # H2
  
           2  atoms
           1  atom types
 
      0.000000000000       2.408773333333  xlo xhi
      0.000000000000       2.298946840590  ylo yhi
      0.000000000000       3.883873658293  zlo zhi
     -0.719049647466      -0.068137291333       0.146024560178  xy xz yz
 
Masses
 
            1   1.00800000              # H
 
Atoms # charge
 
         1    1   0.000000        1.440390678132       2.365936739959       3.693678524106
         2    1   0.000000        0.791998298620       1.002966850016       1.751737811086
