 # H2
  
           2  atoms
           1  atom types
 
      0.000000000000       2.531253333333  xlo xhi
      0.000000000000       2.455282705183  ylo yhi
      0.000000000000       4.071831764292  zlo zhi
     -0.615491896894      -0.010478743728       0.325943547463  xy xz yz
 
Masses
 
            1   1.00800000              # H
 
Atoms # charge
 
         1    1   0.000000       -0.489677495123       2.319335432870       0.127976670095
         2    1   0.000000        1.240551745121       1.104628112518       2.163888480409
