 # H2
  
           2  atoms
           1  atom types
 
      0.000000000000       2.490426666667  xlo xhi
      0.000000000000       2.332036919744  ylo yhi
      0.000000000000       3.946348891537  zlo zhi
     -0.873972989854      -0.093700707280       0.211069215474  xy xz yz
 
Masses
 
            1   1.00800000              # H
 
Atoms # charge
 
         1    1   0.000000        2.319527980880       0.316389961637       3.914002436006
         2    1   0.000000        0.860062034465       1.234367490611       1.940824043888
