 # H2
  
           2  atoms
           1  atom types
 
      0.000000000000       2.327120000000  xlo xhi
      0.000000000000       2.153178185040  ylo yhi
      0.000000000000       3.719280381708  zlo zhi
     -0.882786043087       0.307514732671       0.419231772961  xy xz yz
 
Masses
 
            1   1.00800000              # H
 
Atoms # charge
 
         1    1   0.000000        2.277952868877       0.100256255275       0.090185894462
         2    1   0.000000        0.995147630156       1.254884402512       1.949822366036
