 # H2
  
           2  atoms
           1  atom types
 
      0.000000000000       2.327120000000  xlo xhi
      0.000000000000       2.158093461163  ylo yhi
      0.000000000000       3.942097588994  zlo zhi
     -0.870700928726       0.283186111811      -0.081681300961  xy xz yz
 
Masses
 
            1   1.00800000              # H
 
Atoms # charge
 
         1    1   0.000000        1.453047278475       2.133335177595       0.151254674866
         2    1   0.000000        1.034082742390       0.881571102990       2.122299527265
