 # H2
  
           2  atoms
           1  atom types
 
      0.000000000000       2.490426666667  xlo xhi
      0.000000000000       2.363063183066  ylo yhi
      0.000000000000       3.938927178179  zlo zhi
     -0.645346846928       0.219378777908      -0.252438600066  xy xz yz
 
Masses
 
            1   1.00800000              # H
 
Atoms # charge
 
         1    1   0.000000        0.357510635942      -0.088366909806       3.811545116176
         2    1   0.000000        1.332273485641       1.074982169208       1.842077588160
