 # H2
  
           2  atoms
           1  atom types
 
      0.000000000000       2.531253333333  xlo xhi
      0.000000000000       2.371843772001  ylo yhi
      0.000000000000       3.939932982768  zlo zhi
     -0.612288560420      -0.049856696442      -0.318499624986  xy xz yz
 
Masses
 
            1   1.00800000              # H
 
Atoms # charge
 
         1    1   0.000000       -0.604272991602       2.350957773817       0.045170130243
         2    1   0.000000        1.104469893941       0.860847764604       2.015132681694
