 # H2
  
           2  atoms
           1  atom types
 
      0.000000000000       2.367946666667  xlo xhi
      0.000000000000       2.351791986681  ylo yhi
      0.000000000000       3.945652709057  zlo zhi
     -0.685284328861       0.174244302604       0.168710499137  xy xz yz
 
Masses
 
            1   1.00800000              # H
 
Atoms # charge
 
         1    1   0.000000        1.620513584424       2.264034567488       0.014218986864
         2    1   0.000000        1.024633996467       1.028780350284       1.987041395740
