 # H2
  
           2  atoms
           1  atom types
 
      0.000000000000       2.327120000000  xlo xhi
      0.000000000000       2.271073630927  ylo yhi
      0.000000000000       3.947306427697  zlo zhi
     -0.918022179965      -0.044931410592      -0.209171566436  xy xz yz
 
Masses
 
            1   1.00800000              # H
 
Atoms # charge
 
         1    1   0.000000        0.079272671062       0.068360731816       0.123749692881
         2    1   0.000000        0.931899854568       0.960531205794       2.097398959423
