 # H2
  
           2  atoms
           1  atom types
 
      0.000000000000       2.367946666667  xlo xhi
      0.000000000000       2.279489010183  ylo yhi
      0.000000000000       3.933042188508  zlo zhi
     -0.641171793385      -0.330941485861       0.220582153302  xy xz yz
 
Masses
 
            1   1.00800000              # H
 
Atoms # charge
 
         1    1   0.000000        1.234071902643       2.370088746524       3.901129211988
         2    1   0.000000        0.691789514944       0.980757929765       1.934604184692
