 # H2
  
           2  atoms
           1  atom types
 
      0.000000000000       2.572080000000  xlo xhi
      0.000000000000       2.284233140221  ylo yhi
      0.000000000000       3.942880404281  zlo zhi
     -0.884770660181      -0.246388214509      -0.141373884736  xy xz yz
 
Masses
 
            1   1.00800000              # H
 
Atoms # charge
 
         1    1   0.000000       -0.197730878951      -0.079668491469       3.784357980953
         2    1   0.000000        0.949677032424       0.993550243650       1.812913835932
