 # H2
  
           2  atoms
           1  atom types
 
      0.000000000000       2.490426666667  xlo xhi
      0.000000000000       2.340786661529  ylo yhi
      0.000000000000       4.017462183639  zlo zhi
     -0.850260423196       0.061194656310      -0.092158815602  xy xz yz
 
Masses
 
            1   1.00800000              # H
 
Atoms # charge
 
         1    1   0.000000        1.482923461361       2.240478941247       0.134661987077
         2    1   0.000000        0.867872013566       0.880965503527       2.143389061435
