 # File generated with Atomsk by kevin on 2022-03-20 17:48:09
 
           8  atoms
           2  atom types
 
      0.000000000000       4.681700000000  xlo xhi
      0.000000000000       4.681700000000  ylo yhi
      0.000000000000       4.681700000000  zlo zhi
      0.000000000000       0.000000000000      -0.023408500000  xy xz yz
 
Masses
 
            1   0.00000000              # XX
            2   51.99610000             # Cr
 
Atoms # atomic
 
         1    2       -0.007950164572      -0.006906263732      -0.003513344261
         2    5        2.350145479242       2.322420341854       2.337966857174
         3    2       -0.007950164572       2.322239486268       2.337336655739
         4    5        2.350145479242      -0.006725408146      -0.002883142826
         5    2        2.332899835428       2.333943736268      -0.003513344261
         6    5       -0.007950164572       4.663089486268       2.337336655739
         7    2        2.332899835428      -0.018610513732       2.337336655739
         8    5       -0.007950164572       2.310535236268       4.678186655739
