 # File generated with Atomsk by kevin on 2022-03-20 17:48:08
 
           8  atoms
           2  atom types
 
      0.000000000000       4.658291500000  xlo xhi
      0.000000000000       4.681700000000  ylo yhi
      0.000000000000       4.681700000000  zlo zhi
 
Masses
 
            1   0.00000000              # XX
            2   51.99610000             # Cr
 
Atoms # atomic
 
         1    2       -0.001963087075      -0.007311538890      -0.002618084573
         2    5        2.331342320064       2.333176952982       2.344473656249
         3    2       -0.001963087075       2.333538461110       2.338231915427
         4    5        2.331342320064      -0.007673047018       0.003623656249
         5    2        2.327182662925       2.333538461110      -0.002618084573
         6    5       -0.001963087075       4.674388461110       2.338231915427
         7    2        2.327182662925      -0.007311538890       2.338231915427
         8    5       -0.001963087075       2.333538461110       4.679081915427
