 # File generated with Atomsk by kevin on 2022-03-20 17:48:08
 
           8  atoms
           2  atom types
 
      0.000000000000       4.681700000000  xlo xhi
      0.000000000000       4.658291500000  ylo yhi
      0.000000000000       4.681700000000  zlo zhi
 
Masses
 
            1   0.00000000              # XX
            2   51.99610000             # Cr
 
Atoms # atomic
 
         1    2       -0.006083517873      -0.005013820328      -0.002283396908
         2    5        2.334319419423       2.320997231578       2.340378859529
         3    2       -0.006083517873       2.324131929672       2.338566603092
         4    5        2.334319419423      -0.008148518422      -0.000471140471
         5    2        2.334766482127       2.324131929672      -0.002283396908
         6    5       -0.006083517873       4.653277679672       2.338566603092
         7    2        2.334766482127      -0.005013820328       2.338566603092
         8    5       -0.006083517873       2.324131929672       4.679416603092
