 # File generated with Atomsk by kevin on 2022-03-20 17:48:09
 
           8  atoms
           2  atom types
 
      0.000000000000       4.681700000000  xlo xhi
      0.000000000000       4.681700000000  ylo yhi
      0.000000000000       4.658291500000  zlo zhi
 
Masses
 
            1   0.00000000              # XX
            2   51.99610000             # Cr
 
Atoms # atomic
 
         1    2       -0.005470877925       0.008436846752       0.001976944491
         2    5        2.343679260405       2.343940427540       2.325598878677
         3    2       -0.005470877925       2.349286846752       2.331122694491
         4    5        2.343679260405       0.003090427540      -0.003546871323
         5    2        2.335379122075       2.349286846752       0.001976944491
         6    5       -0.005470877925       4.690136846752       2.331122694491
         7    2        2.335379122075       0.008436846752       2.331122694491
         8    5       -0.005470877925       2.349286846752       4.660268444491
