 # File generated with Atomsk by kevin on 2022-03-20 17:48:09
 
           8  atoms
           2  atom types
 
      0.000000000000       4.681700000000  xlo xhi
      0.000000000000       4.681700000000  ylo yhi
      0.000000000000       4.681700000000  zlo zhi
     -0.023408500000       0.000000000000       0.000000000000  xy xz yz
 
Masses
 
            1   0.00000000              # XX
            2   51.99610000             # Cr
 
Atoms # atomic
 
         1    2        0.007436464517       0.006497622894       0.003387271417
         2    5        2.327437415418       2.342560743781       2.342558604077
         3    2       -0.004267785483       2.347347622894       2.344237271417
         4    5        2.339141665418       0.001710743781       0.001708604077
         5    2        2.336582214517       2.347347622894       0.003387271417
         6    5       -0.015972035483       4.688197622894       2.344237271417
         7    2        2.348286464517       0.006497622894       2.344237271417
         8    5       -0.004267785483       2.347347622894       4.685087271417
