 # File generated with Atomsk by kevin on 2022-03-20 17:48:09
 
           8  atoms
           2  atom types
 
      0.000000000000       4.681700000000  xlo xhi
      0.000000000000       4.681700000000  ylo yhi
      0.000000000000       4.681700000000  zlo zhi
      0.000000000000      -0.023408500000       0.000000000000  xy xz yz
 
Masses
 
            1   0.00000000              # XX
            2   51.99610000             # Cr
 
Atoms # atomic
 
         1    2        0.004416341820       0.004989430625      -0.000770256642
         2    5        2.321498575752       2.343813079427       2.339737849276
         3    2       -0.007287908180       2.345839430625       2.340079743358
         4    5        2.333202825752       0.002963079427      -0.001112150724
         5    2        2.345266341820       2.345839430625      -0.000770256642
         6    5       -0.007287908180       4.686689430625       2.340079743358
         7    2        2.333562091820       0.004989430625       2.340079743358
         8    5       -0.018992158180       2.345839430625       4.680929743358
