 # File generated with Atomsk by kevin on 2022-03-20 17:48:07
 
           8  atoms
           2  atom types
 
      0.000000000000       4.681700000000  xlo xhi
      0.000000000000       4.681700000000  ylo yhi
      0.000000000000       4.705108500000  zlo zhi
 
Masses
 
            1   0.00000000              # XX
            2   51.99610000             # Cr
 
Atoms # atomic
 
         1    2       -0.009214163874      -0.001339081408       0.001795465164
         2    5        2.348050683894       2.333311224629       2.354179804474
         3    2       -0.009214163874       2.339510918592       2.354349715164
         4    5        2.348050683894      -0.007538775371       0.001625554474
         5    2        2.331635836126       2.339510918592       0.001795465164
         6    5       -0.009214163874       4.680360918592       2.354349715164
         7    2        2.331635836126      -0.001339081408       2.354349715164
         8    5       -0.009214163874       2.339510918592       4.706903965164
