 # File generated with Atomsk by kevin on 2022-03-20 17:48:07
 
           8  atoms
           2  atom types
 
      0.000000000000       4.681700000000  xlo xhi
      0.000000000000       4.705108500000  ylo yhi
      0.000000000000       4.681700000000  zlo zhi
 
Masses
 
            1   0.00000000              # XX
            2   51.99610000             # Cr
 
Atoms # atomic
 
         1    2       -0.000709308976      -0.000248279015      -0.002286759587
         2    5        2.348791347829       2.355922801752       2.343848294093
         3    2       -0.000709308976       2.352305970985       2.338563240413
         4    5        2.348791347829       0.003368551752       0.002998294093
         5    2        2.340140691024       2.352305970985      -0.002286759587
         6    5       -0.000709308976       4.704860220985       2.338563240413
         7    2        2.340140691024      -0.000248279015       2.338563240413
         8    5       -0.000709308976       2.352305970985       4.679413240413
