 # File generated with Atomsk by kevin on 2022-03-20 17:48:07
 
           8  atoms
           2  atom types
 
      0.000000000000       4.681700000000  xlo xhi
      0.000000000000       4.681700000000  ylo yhi
      0.000000000000       4.681700000000  zlo zhi
      0.000000000000       0.000000000000       0.023408500000  xy xz yz
 
Masses
 
            1   0.00000000              # XX
            2   51.99610000             # Cr
 
Atoms # atomic
 
         1    2       -0.007768587962       0.010957317020      -0.008480423286
         2    5        2.333499355836       2.347685895061       2.343832127367
         3    2       -0.007768587962       2.363511567020       2.332369576714
         4    5        2.333499355836      -0.004868354939       0.002982127367
         5    2        2.333081412038       2.351807317020      -0.008480423286
         6    5       -0.007768587962       4.704361567020       2.332369576714
         7    2        2.333081412038       0.022661567020       2.332369576714
         8    5       -0.007768587962       2.375215817020       4.673219576714
