 # File generated with Atomsk by kevin on 2022-03-20 17:48:07
 
           8  atoms
           2  atom types
 
      0.000000000000       4.705108500000  xlo xhi
      0.000000000000       4.681700000000  ylo yhi
      0.000000000000       4.681700000000  zlo zhi
 
Masses
 
            1   0.00000000              # XX
            2   51.99610000             # Cr
 
Atoms # atomic
 
         1    2        0.001100667251       0.003588584487      -0.001079287709
         2    5        2.355660184255       2.332394994135       2.347163670845
         3    2        0.001100667251       2.344438584487       2.339770712291
         4    5        2.355660184255      -0.008455005865       0.006313670845
         5    2        2.353654917251       2.344438584487      -0.001079287709
         6    5        0.001100667251       4.685288584487       2.339770712291
         7    2        2.353654917251       0.003588584487       2.339770712291
         8    5        0.001100667251       2.344438584487       4.680620712291
