 # File generated with Atomsk by kevin on 2022-03-20 17:48:07
 
           8  atoms
           2  atom types
 
      0.000000000000       4.681700000000  xlo xhi
      0.000000000000       4.681700000000  ylo yhi
      0.000000000000       4.681700000000  zlo zhi
      0.023408500000       0.000000000000       0.000000000000  xy xz yz
 
Masses
 
            1   0.00000000              # XX
            2   51.99610000             # Cr
 
Atoms # atomic
 
         1    2        0.009154480143       0.003234207948       0.007112594051
         2    5        2.349234266160       2.348323119114       2.345609113081
         3    2        0.020858730143       2.344084207948       2.347962594051
         4    5        2.337530016160       0.007473119114       0.004759113081
         5    2        2.361708730143       2.344084207948       0.007112594051
         6    5        0.032562980143       4.684934207948       2.347962594051
         7    2        2.350004480143       0.003234207948       2.347962594051
         8    5        0.020858730143       2.344084207948       4.688812594051
