 # File generated with Atomsk by kevin on 2022-03-20 17:48:07
 
           8  atoms
           2  atom types
 
      0.000000000000       4.681700000000  xlo xhi
      0.000000000000       4.681700000000  ylo yhi
      0.000000000000       4.681700000000  zlo zhi
      0.000000000000       0.023408500000       0.000000000000  xy xz yz
 
Masses
 
            1   0.00000000              # XX
            2   51.99610000             # Cr
 
Atoms # atomic
 
         1    2       -0.006086372637       0.001944596834       0.005001226844
         2    5        2.355351857841       2.332893850048       2.337463029922
         3    2        0.005617877363       2.342794596834       2.345851226844
         4    5        2.343647607841      -0.007956149952      -0.003386970078
         5    2        2.334763627363       2.342794596834       0.005001226844
         6    5        0.005617877363       4.683644596834       2.345851226844
         7    2        2.346467877363       0.001944596834       2.345851226844
         8    5        0.017322127363       2.342794596834       4.686701226844
