
     Program PWSCF v.6.7MaX starts on 10Feb2022 at 20:48:49 

     This program is part of the open-source Quantum ESPRESSO suite
     for quantum simulation of materials; please cite
         "P. Giannozzi et al., J. Phys.:Condens. Matter 21 395502 (2009);
         "P. Giannozzi et al., J. Phys.:Condens. Matter 29 465901 (2017);
          URL http://www.quantum-espresso.org", 
     in publications or presentations arising from this work. More details at
     http://www.quantum-espresso.org/quote

     Parallel version (MPI), running on    24 processors

     MPI processes distributed on     1 nodes
     R & G space division:  proc/nbgrp/npool/nimage =      24
     Reading input from /home/kevin/QE_CoCrFeMnNi/CoCrFeMnNi/Opt/binary/Opt-B1-CrFe/Mix/MD/600K_0.0001Gpa-B1-CrFe/600K_0.0001Gpa-B1-CrFe.in

     Current dimensions of program PWSCF are:
     Max number of different atomic species (ntypx) = 10
     Max number of k-points (npk) =  40000
     Max angular momentum in pseudopotentials (lmaxx) =  3

     File ./pwscf.update deleted, as requested

     File ./pwscf.md deleted, as requested
     file Fe.pbe-spn-kjpaw_psl.0.2.1.UPF: wavefunction(s)  3D renormalized

     Subspace diagonalization in iterative solution of the eigenvalue problem:
     a serial algorithm will be used

     Found symmetry operation: I + (  0.0000  0.5000 -0.5000)
     This is a supercell, fractional translations are disabled

     Parallelization info
     --------------------
     sticks:   dense  smooth     PW     G-vecs:    dense   smooth      PW
     Min         270      90     24                16358     3142     458
     Max         271      91     25                16361     3145     463
     Sum        6493    2161    593               392615    75421   11067



     bravais-lattice index     =            0
     lattice parameter (alat)  =       8.6823  a.u.
     unit-cell volume          =     654.5026 (a.u.)^3
     number of atoms/cell      =            8
     number of atomic types    =            2
     number of electrons       =       120.00
     number of Kohn-Sham states=           72
     kinetic-energy cutoff     =      90.0000  Ry
     charge density cutoff     =    1080.0000  Ry
     scf convergence threshold =      1.0E-08
     mixing beta               =       0.2000
     number of iterations used =            4  plain     mixing
     energy convergence thresh.=      0.0E+00
     force convergence thresh. =      0.0E+00
     press convergence thresh. =      0.0E+00
     Exchange-correlation=  SLA  PW   PBX  PBC
                           (   1   4   3   4   0   0   0)
     nstep                     =          102


     celldm(1)=   8.682347  celldm(2)=   0.000000  celldm(3)=   0.000000
     celldm(4)=   0.000000  celldm(5)=   0.000000  celldm(6)=   0.000000

     crystal axes: (cart. coord. in units of alat)
               a(1) = (   1.000000   0.000000   0.000000 )  
               a(2) = (   0.000000   1.000000   0.000000 )  
               a(3) = (   0.000000   0.000000   1.000000 )  

     reciprocal axes: (cart. coord. in units 2 pi/alat)
               b(1) = (  1.000000  0.000000  0.000000 )  
               b(2) = (  0.000000  1.000000  0.000000 )  
               b(3) = (  0.000000  0.000000  1.000000 )  


     PseudoPot. # 1 for Fe read from file:
     /opt/QEpot/SSSP_efficiency_pseudos/Fe.pbe-spn-kjpaw_psl.0.2.1.UPF
     MD5 check sum: e86618425769142926afa95317d90200
     Pseudo is Projector augmented-wave + core cor, Zval = 16.0
     Generated using "atomic" code by A. Dal Corso  v.5.0.99 svn rev. 10869
     Shape of augmentation charge: PSQ
     Using radial grid of 1191 points,  6 beta functions with: 
                l(1) =   0
                l(2) =   0
                l(3) =   1
                l(4) =   1
                l(5) =   2
                l(6) =   2
     Q(r) pseudized with 0 coefficients 


     PseudoPot. # 2 for Cr read from file:
     /opt/QEpot/SSSP_efficiency_pseudos/cr_pbe_v1.5.uspp.F.UPF
     MD5 check sum: 0d52af634a40206e4dee301ad30da4bf
     Pseudo is Ultrasoft + core correction, Zval = 14.0
     Generated by new atomic code, or converted to UPF format
     Using radial grid of  857 points,  6 beta functions with: 
                l(1) =   0
                l(2) =   0
                l(3) =   1
                l(4) =   1
                l(5) =   2
                l(6) =   2
     Q(r) pseudized with  8 coefficients,  rinner =    0.950   0.950   0.950
                                                       0.950   0.950

     atomic species   valence    mass     pseudopotential
        Fe            16.00    55.84500     Fe( 1.00)
        Cr            14.00    51.99610     Cr( 1.00)

      cell mass =  32.77976 AMU 

     Starting magnetic structure 
     atomic species   magnetization
        Fe          -0.000
        Cr           0.000

     No symmetry found



   Cartesian axes

     site n.     atom                  positions (alat units)
         1           Fe  tau(   1) = (   0.0000000   0.5000000   0.0000000  )
         2           Cr  tau(   2) = (   0.5000000   0.0000000   0.5000000  )
         3           Fe  tau(   3) = (   0.0000000   0.0000000   0.5000000  )
         4           Cr  tau(   4) = (   0.5000000   0.5000000   0.0000000  )
         5           Fe  tau(   5) = (   0.5000000   0.0000000   0.0000000  )
         6           Cr  tau(   6) = (   0.0000000   0.5000000   0.5000000  )
         7           Fe  tau(   7) = (   0.5000000   0.5000000   0.5000000  )
         8           Cr  tau(   8) = (   0.0000000   0.0000000   0.0000000  )

     number of k points=    63  Gaussian smearing, width (Ry)=  0.0100
                       cart. coord. in units 2pi/alat
        k(    1) = (   0.0000000   0.0000000   0.0000000), wk =   0.0080000
        k(    2) = (   0.0000000   0.0000000   0.2000000), wk =   0.0160000
        k(    3) = (   0.0000000   0.0000000   0.4000000), wk =   0.0160000
        k(    4) = (   0.0000000   0.2000000   0.0000000), wk =   0.0160000
        k(    5) = (   0.0000000   0.2000000   0.2000000), wk =   0.0160000
        k(    6) = (   0.0000000   0.2000000   0.4000000), wk =   0.0160000
        k(    7) = (   0.0000000   0.2000000  -0.4000000), wk =   0.0160000
        k(    8) = (   0.0000000   0.2000000  -0.2000000), wk =   0.0160000
        k(    9) = (   0.0000000   0.4000000   0.0000000), wk =   0.0160000
        k(   10) = (   0.0000000   0.4000000   0.2000000), wk =   0.0160000
        k(   11) = (   0.0000000   0.4000000   0.4000000), wk =   0.0160000
        k(   12) = (   0.0000000   0.4000000  -0.4000000), wk =   0.0160000
        k(   13) = (   0.0000000   0.4000000  -0.2000000), wk =   0.0160000
        k(   14) = (   0.2000000   0.0000000   0.0000000), wk =   0.0160000
        k(   15) = (   0.2000000   0.0000000   0.2000000), wk =   0.0160000
        k(   16) = (   0.2000000   0.0000000   0.4000000), wk =   0.0160000
        k(   17) = (   0.2000000   0.0000000  -0.4000000), wk =   0.0160000
        k(   18) = (   0.2000000   0.0000000  -0.2000000), wk =   0.0160000
        k(   19) = (   0.2000000   0.2000000   0.0000000), wk =   0.0160000
        k(   20) = (   0.2000000   0.2000000   0.2000000), wk =   0.0160000
        k(   21) = (   0.2000000   0.2000000   0.4000000), wk =   0.0160000
        k(   22) = (   0.2000000   0.2000000  -0.4000000), wk =   0.0160000
        k(   23) = (   0.2000000   0.2000000  -0.2000000), wk =   0.0160000
        k(   24) = (   0.2000000   0.4000000   0.0000000), wk =   0.0160000
        k(   25) = (   0.2000000   0.4000000   0.2000000), wk =   0.0160000
        k(   26) = (   0.2000000   0.4000000   0.4000000), wk =   0.0160000
        k(   27) = (   0.2000000   0.4000000  -0.4000000), wk =   0.0160000
        k(   28) = (   0.2000000   0.4000000  -0.2000000), wk =   0.0160000
        k(   29) = (   0.2000000  -0.4000000   0.0000000), wk =   0.0160000
        k(   30) = (   0.2000000  -0.4000000   0.2000000), wk =   0.0160000
        k(   31) = (   0.2000000  -0.4000000   0.4000000), wk =   0.0160000
        k(   32) = (   0.2000000  -0.4000000  -0.4000000), wk =   0.0160000
        k(   33) = (   0.2000000  -0.4000000  -0.2000000), wk =   0.0160000
        k(   34) = (   0.2000000  -0.2000000   0.0000000), wk =   0.0160000
        k(   35) = (   0.2000000  -0.2000000   0.2000000), wk =   0.0160000
        k(   36) = (   0.2000000  -0.2000000   0.4000000), wk =   0.0160000
        k(   37) = (   0.2000000  -0.2000000  -0.4000000), wk =   0.0160000
        k(   38) = (   0.2000000  -0.2000000  -0.2000000), wk =   0.0160000
        k(   39) = (   0.4000000   0.0000000   0.0000000), wk =   0.0160000
        k(   40) = (   0.4000000   0.0000000   0.2000000), wk =   0.0160000
        k(   41) = (   0.4000000   0.0000000   0.4000000), wk =   0.0160000
        k(   42) = (   0.4000000   0.0000000  -0.4000000), wk =   0.0160000
        k(   43) = (   0.4000000   0.0000000  -0.2000000), wk =   0.0160000
        k(   44) = (   0.4000000   0.2000000   0.0000000), wk =   0.0160000
        k(   45) = (   0.4000000   0.2000000   0.2000000), wk =   0.0160000
        k(   46) = (   0.4000000   0.2000000   0.4000000), wk =   0.0160000
        k(   47) = (   0.4000000   0.2000000  -0.4000000), wk =   0.0160000
        k(   48) = (   0.4000000   0.2000000  -0.2000000), wk =   0.0160000
        k(   49) = (   0.4000000   0.4000000   0.0000000), wk =   0.0160000
        k(   50) = (   0.4000000   0.4000000   0.2000000), wk =   0.0160000
        k(   51) = (   0.4000000   0.4000000   0.4000000), wk =   0.0160000
        k(   52) = (   0.4000000   0.4000000  -0.4000000), wk =   0.0160000
        k(   53) = (   0.4000000   0.4000000  -0.2000000), wk =   0.0160000
        k(   54) = (   0.4000000  -0.4000000   0.0000000), wk =   0.0160000
        k(   55) = (   0.4000000  -0.4000000   0.2000000), wk =   0.0160000
        k(   56) = (   0.4000000  -0.4000000   0.4000000), wk =   0.0160000
        k(   57) = (   0.4000000  -0.4000000  -0.4000000), wk =   0.0160000
        k(   58) = (   0.4000000  -0.4000000  -0.2000000), wk =   0.0160000
        k(   59) = (   0.4000000  -0.2000000   0.0000000), wk =   0.0160000
        k(   60) = (   0.4000000  -0.2000000   0.2000000), wk =   0.0160000
        k(   61) = (   0.4000000  -0.2000000   0.4000000), wk =   0.0160000
        k(   62) = (   0.4000000  -0.2000000  -0.4000000), wk =   0.0160000
        k(   63) = (   0.4000000  -0.2000000  -0.2000000), wk =   0.0160000

     Dense  grid:   392615 G-vectors     FFT dimensions: (  96,  96,  96)

     Smooth grid:    75421 G-vectors     FFT dimensions: (  54,  54,  54)

     Estimated max dynamical RAM per process >     128.92 MB

     Estimated total dynamical RAM >       3.02 GB

     Check: negative core charge=   -0.000008
     Generating pointlists ...
     new r_m :   0.2063 (alat units)  1.7907 (a.u.) for type    1
     new r_m :   0.2063 (alat units)  1.7907 (a.u.) for type    2

     Initial potential from superposition of free atoms

     starting charge  115.99819, renormalised to  120.00000

     negative rho (up, down):  1.574E-03 1.574E-03
     Starting wfcs are   92 randomized atomic wfcs
     Checking if some PAW data can be deallocated... 

     total cpu time spent up to now is       12.1 secs

     Self-consistent Calculation

     iteration #  1     ecut=    90.00 Ry     beta= 0.20
     CG style diagonalization
     ethr =  1.00E-02,  avg # of iterations =  2.6

     negative rho (up, down):  1.226E-03 1.226E-03

     total cpu time spent up to now is       37.5 secs

     total energy              =   -2010.23840452 Ry
     estimated scf accuracy    <      31.49220612 Ry

     total magnetization       =     0.00 Bohr mag/cell
     absolute magnetization    =     0.01 Bohr mag/cell

     iteration #  2     ecut=    90.00 Ry     beta= 0.20
     CG style diagonalization
     ethr =  1.00E-02,  avg # of iterations =  3.8

     negative rho (up, down):  1.646E-03 1.647E-03

     total cpu time spent up to now is       70.8 secs

     total energy              =   -2017.02164832 Ry
     estimated scf accuracy    <      52.51154711 Ry

     total magnetization       =     0.05 Bohr mag/cell
     absolute magnetization    =     0.08 Bohr mag/cell

     iteration #  3     ecut=    90.00 Ry     beta= 0.20
     CG style diagonalization
     ethr =  1.00E-02,  avg # of iterations =  3.3

     negative rho (up, down):  1.174E-03 1.177E-03

     total cpu time spent up to now is      100.4 secs

     total energy              =   -2021.93534343 Ry
     estimated scf accuracy    <      11.66471636 Ry

     total magnetization       =    -0.01 Bohr mag/cell
     absolute magnetization    =     0.05 Bohr mag/cell

     iteration #  4     ecut=    90.00 Ry     beta= 0.20
     CG style diagonalization
     ethr =  9.72E-03,  avg # of iterations =  3.0

     negative rho (up, down):  2.555E-03 2.523E-03

     total cpu time spent up to now is      127.5 secs

     total energy              =   -2014.48841598 Ry
     estimated scf accuracy    <      32.73970260 Ry

     total magnetization       =     0.03 Bohr mag/cell
     absolute magnetization    =     0.04 Bohr mag/cell

     iteration #  5     ecut=    90.00 Ry     beta= 0.20
     CG style diagonalization
     ethr =  9.72E-03,  avg # of iterations =  3.7

     negative rho (up, down):  1.597E-03 1.597E-03

     total cpu time spent up to now is      159.8 secs

     total energy              =   -2016.14179020 Ry
     estimated scf accuracy    <      17.22935529 Ry

     total magnetization       =     0.00 Bohr mag/cell
     absolute magnetization    =     0.08 Bohr mag/cell

     iteration #  6     ecut=    90.00 Ry     beta= 0.20
     CG style diagonalization
     ethr =  9.72E-03,  avg # of iterations =  3.2

     negative rho (up, down):  1.615E-03 1.615E-03

     total cpu time spent up to now is      188.4 secs

     total energy              =   -2018.77957732 Ry
     estimated scf accuracy    <       6.57994095 Ry

     total magnetization       =    -0.02 Bohr mag/cell
     absolute magnetization    =     0.05 Bohr mag/cell

     iteration #  7     ecut=    90.00 Ry     beta= 0.20
     CG style diagonalization
     ethr =  5.48E-03,  avg # of iterations =  3.0

     negative rho (up, down):  1.756E-03 1.756E-03

     total cpu time spent up to now is      215.1 secs

     total energy              =   -2018.61374309 Ry
     estimated scf accuracy    <       5.73061873 Ry

     total magnetization       =    -0.01 Bohr mag/cell
     absolute magnetization    =     0.06 Bohr mag/cell

     iteration #  8     ecut=    90.00 Ry     beta= 0.20
     CG style diagonalization
     ethr =  4.78E-03,  avg # of iterations =  3.0

     negative rho (up, down):  1.692E-03 1.692E-03

     total cpu time spent up to now is      241.8 secs

     total energy              =   -2018.78299803 Ry
     estimated scf accuracy    <       3.55366698 Ry

     total magnetization       =    -0.01 Bohr mag/cell
     absolute magnetization    =     0.05 Bohr mag/cell

     iteration #  9     ecut=    90.00 Ry     beta= 0.20
     CG style diagonalization
     ethr =  2.96E-03,  avg # of iterations =  3.0

     negative rho (up, down):  1.570E-03 1.565E-03

     total cpu time spent up to now is      268.4 secs

     total energy              =   -2018.68542795 Ry
     estimated scf accuracy    <       4.92554450 Ry

     total magnetization       =    -0.01 Bohr mag/cell
     absolute magnetization    =     0.04 Bohr mag/cell

     iteration # 10     ecut=    90.00 Ry     beta= 0.20
     CG style diagonalization
     ethr =  2.96E-03,  avg # of iterations =  3.0

     negative rho (up, down):  1.601E-03 1.584E-03

     total cpu time spent up to now is      295.1 secs

     total energy              =   -2018.07710041 Ry
     estimated scf accuracy    <       3.32538539 Ry

     total magnetization       =    -0.01 Bohr mag/cell
     absolute magnetization    =     0.04 Bohr mag/cell

     iteration # 11     ecut=    90.00 Ry     beta= 0.20
     CG style diagonalization
     ethr =  2.77E-03,  avg # of iterations =  3.1

     negative rho (up, down):  1.745E-03 1.734E-03

     total cpu time spent up to now is      322.6 secs

     total energy              =   -2018.48243228 Ry
     estimated scf accuracy    <       4.77935238 Ry

     total magnetization       =     0.02 Bohr mag/cell
     absolute magnetization    =     0.07 Bohr mag/cell

     iteration # 12     ecut=    90.00 Ry     beta= 0.20
     CG style diagonalization
     ethr =  2.77E-03,  avg # of iterations =  3.0

     negative rho (up, down):  1.780E-03 1.771E-03

     total cpu time spent up to now is      349.2 secs

     total energy              =   -2018.45736823 Ry
     estimated scf accuracy    <       1.13046915 Ry

     total magnetization       =    -0.00 Bohr mag/cell
     absolute magnetization    =     0.05 Bohr mag/cell

     iteration # 13     ecut=    90.00 Ry     beta= 0.20
     CG style diagonalization
     ethr =  9.42E-04,  avg # of iterations =  3.0

     negative rho (up, down):  1.701E-03 1.691E-03

     total cpu time spent up to now is      375.8 secs

     total energy              =   -2018.50772980 Ry
     estimated scf accuracy    <       0.01208627 Ry

     total magnetization       =    -0.01 Bohr mag/cell
     absolute magnetization    =     0.03 Bohr mag/cell

     iteration # 14     ecut=    90.00 Ry     beta= 0.20
     CG style diagonalization
     c_bands:  1 eigenvalues not converged
     c_bands:  1 eigenvalues not converged
     c_bands:  1 eigenvalues not converged
     c_bands:  1 eigenvalues not converged
     c_bands:  1 eigenvalues not converged
     c_bands:  1 eigenvalues not converged
     c_bands:  1 eigenvalues not converged
     c_bands:  1 eigenvalues not converged
     c_bands:  1 eigenvalues not converged
     c_bands:  1 eigenvalues not converged
     c_bands:  1 eigenvalues not converged
     c_bands:  1 eigenvalues not converged
     c_bands:  1 eigenvalues not converged
     c_bands:  1 eigenvalues not converged
     c_bands:  1 eigenvalues not converged
     c_bands:  1 eigenvalues not converged
     ethr =  1.01E-05,  avg # of iterations =  4.8

     negative rho (up, down):  1.713E-03 1.704E-03

     total cpu time spent up to now is      418.6 secs

     total energy              =   -2018.52268301 Ry
     estimated scf accuracy    <       0.01758503 Ry

     total magnetization       =    -0.00 Bohr mag/cell
     absolute magnetization    =     0.02 Bohr mag/cell

     iteration # 15     ecut=    90.00 Ry     beta= 0.20
     CG style diagonalization
     c_bands:  1 eigenvalues not converged
     c_bands:  1 eigenvalues not converged
     c_bands:  1 eigenvalues not converged
     c_bands:  1 eigenvalues not converged
     c_bands:  1 eigenvalues not converged
     c_bands:  1 eigenvalues not converged
     c_bands:  1 eigenvalues not converged
     ethr =  1.01E-05,  avg # of iterations =  3.1

     negative rho (up, down):  1.686E-03 1.676E-03

     total cpu time spent up to now is      446.3 secs

     total energy              =   -2018.52381205 Ry
     estimated scf accuracy    <       0.01126853 Ry

     total magnetization       =    -0.00 Bohr mag/cell
     absolute magnetization    =     0.03 Bohr mag/cell

     iteration # 16     ecut=    90.00 Ry     beta= 0.20
     CG style diagonalization
     c_bands:  1 eigenvalues not converged
     c_bands:  1 eigenvalues not converged
     c_bands:  1 eigenvalues not converged
     c_bands:  1 eigenvalues not converged
     c_bands:  1 eigenvalues not converged
     c_bands:  1 eigenvalues not converged
     c_bands:  1 eigenvalues not converged
     c_bands:  1 eigenvalues not converged
     ethr =  9.39E-06,  avg # of iterations =  3.0

     negative rho (up, down):  1.660E-03 1.649E-03

     total cpu time spent up to now is      473.2 secs

     total energy              =   -2018.52352375 Ry
     estimated scf accuracy    <       0.01020149 Ry

     total magnetization       =    -0.00 Bohr mag/cell
     absolute magnetization    =     0.03 Bohr mag/cell

     iteration # 17     ecut=    90.00 Ry     beta= 0.20
     CG style diagonalization
     c_bands:  1 eigenvalues not converged
     c_bands:  1 eigenvalues not converged
     ethr =  8.50E-06,  avg # of iterations =  3.1

     negative rho (up, down):  1.696E-03 1.686E-03

     total cpu time spent up to now is      500.2 secs

     total energy              =   -2018.52314828 Ry
     estimated scf accuracy    <       0.02218427 Ry

     total magnetization       =    -0.00 Bohr mag/cell
     absolute magnetization    =     0.03 Bohr mag/cell

     iteration # 18     ecut=    90.00 Ry     beta= 0.20
     CG style diagonalization
     ethr =  8.50E-06,  avg # of iterations =  3.0

     negative rho (up, down):  1.683E-03 1.672E-03

     total cpu time spent up to now is      527.1 secs

     total energy              =   -2018.52420993 Ry
     estimated scf accuracy    <       0.00732606 Ry

     total magnetization       =    -0.00 Bohr mag/cell
     absolute magnetization    =     0.03 Bohr mag/cell

     iteration # 19     ecut=    90.00 Ry     beta= 0.20
     CG style diagonalization
     c_bands:  1 eigenvalues not converged
     c_bands:  1 eigenvalues not converged
     ethr =  6.11E-06,  avg # of iterations =  3.0

     negative rho (up, down):  1.674E-03 1.663E-03

     total cpu time spent up to now is      553.7 secs

     total energy              =   -2018.52450931 Ry
     estimated scf accuracy    <       0.00242768 Ry

     total magnetization       =    -0.00 Bohr mag/cell
     absolute magnetization    =     0.02 Bohr mag/cell

     iteration # 20     ecut=    90.00 Ry     beta= 0.20
     CG style diagonalization
     c_bands:  1 eigenvalues not converged
     c_bands:  1 eigenvalues not converged
     c_bands:  1 eigenvalues not converged
     c_bands:  1 eigenvalues not converged
     c_bands:  1 eigenvalues not converged
     c_bands:  1 eigenvalues not converged
     c_bands:  1 eigenvalues not converged
     c_bands:  1 eigenvalues not converged
     c_bands:  1 eigenvalues not converged
     c_bands:  1 eigenvalues not converged
     c_bands:  1 eigenvalues not converged
     c_bands:  1 eigenvalues not converged
     c_bands:  1 eigenvalues not converged
     c_bands:  1 eigenvalues not converged
     c_bands:  1 eigenvalues not converged
     c_bands:  1 eigenvalues not converged
     c_bands:  1 eigenvalues not converged
     c_bands:  1 eigenvalues not converged
     c_bands:  1 eigenvalues not converged
     c_bands:  1 eigenvalues not converged
     ethr =  2.02E-06,  avg # of iterations =  3.4

     negative rho (up, down):  1.679E-03 1.668E-03

     total cpu time spent up to now is      583.9 secs

     total energy              =   -2018.52465524 Ry
     estimated scf accuracy    <       0.00276279 Ry

     total magnetization       =    -0.00 Bohr mag/cell
     absolute magnetization    =     0.03 Bohr mag/cell

     iteration # 21     ecut=    90.00 Ry     beta= 0.20
     CG style diagonalization
     c_bands:  1 eigenvalues not converged
     c_bands:  1 eigenvalues not converged
     c_bands:  1 eigenvalues not converged
     c_bands:  1 eigenvalues not converged
     c_bands:  1 eigenvalues not converged
     c_bands:  1 eigenvalues not converged
     ethr =  2.02E-06,  avg # of iterations =  3.1

     negative rho (up, down):  1.673E-03 1.663E-03

     total cpu time spent up to now is      611.0 secs

     total energy              =   -2018.52478304 Ry
     estimated scf accuracy    <       0.00282186 Ry

     total magnetization       =    -0.00 Bohr mag/cell
     absolute magnetization    =     0.03 Bohr mag/cell

     iteration # 22     ecut=    90.00 Ry     beta= 0.20
     CG style diagonalization
     c_bands:  1 eigenvalues not converged
     c_bands:  1 eigenvalues not converged
     c_bands:  1 eigenvalues not converged
     ethr =  2.02E-06,  avg # of iterations =  3.0

     negative rho (up, down):  1.665E-03 1.655E-03

     total cpu time spent up to now is      637.7 secs

     total energy              =   -2018.52484516 Ry
     estimated scf accuracy    <       0.00118859 Ry

     total magnetization       =    -0.00 Bohr mag/cell
     absolute magnetization    =     0.03 Bohr mag/cell

     iteration # 23     ecut=    90.00 Ry     beta= 0.20
     CG style diagonalization
     c_bands:  1 eigenvalues not converged
     ethr =  9.90E-07,  avg # of iterations =  3.0

     negative rho (up, down):  1.667E-03 1.656E-03

     total cpu time spent up to now is      664.5 secs

     total energy              =   -2018.52479771 Ry
     estimated scf accuracy    <       0.00127418 Ry

     total magnetization       =    -0.00 Bohr mag/cell
     absolute magnetization    =     0.03 Bohr mag/cell

     iteration # 24     ecut=    90.00 Ry     beta= 0.20
     CG style diagonalization
     ethr =  9.90E-07,  avg # of iterations =  3.1

     negative rho (up, down):  1.669E-03 1.658E-03

     total cpu time spent up to now is      692.6 secs

     total energy              =   -2018.52480449 Ry
     estimated scf accuracy    <       0.00342377 Ry

     total magnetization       =    -0.00 Bohr mag/cell
     absolute magnetization    =     0.02 Bohr mag/cell

     iteration # 25     ecut=    90.00 Ry     beta= 0.20
     CG style diagonalization
     ethr =  9.90E-07,  avg # of iterations =  3.0

     negative rho (up, down):  1.665E-03 1.655E-03

     total cpu time spent up to now is      719.4 secs

     total energy              =   -2018.52491718 Ry
     estimated scf accuracy    <       0.00109466 Ry

     total magnetization       =    -0.00 Bohr mag/cell
     absolute magnetization    =     0.03 Bohr mag/cell

     iteration # 26     ecut=    90.00 Ry     beta= 0.20
     CG style diagonalization
     ethr =  9.12E-07,  avg # of iterations =  3.0

     negative rho (up, down):  1.665E-03 1.655E-03

     total cpu time spent up to now is      745.9 secs

     total energy              =   -2018.52494798 Ry
     estimated scf accuracy    <       0.00038784 Ry

     total magnetization       =    -0.00 Bohr mag/cell
     absolute magnetization    =     0.03 Bohr mag/cell

     iteration # 27     ecut=    90.00 Ry     beta= 0.20
     CG style diagonalization
     c_bands:  1 eigenvalues not converged
     c_bands:  1 eigenvalues not converged
     ethr =  3.23E-07,  avg # of iterations =  3.2

     negative rho (up, down):  1.666E-03 1.655E-03

     total cpu time spent up to now is      774.0 secs

     total energy              =   -2018.52496549 Ry
     estimated scf accuracy    <       0.00072094 Ry

     total magnetization       =    -0.00 Bohr mag/cell
     absolute magnetization    =     0.03 Bohr mag/cell

     iteration # 28     ecut=    90.00 Ry     beta= 0.20
     CG style diagonalization
     ethr =  3.23E-07,  avg # of iterations =  3.2

     negative rho (up, down):  1.665E-03 1.655E-03

     total cpu time spent up to now is      801.9 secs

     total energy              =   -2018.52500734 Ry
     estimated scf accuracy    <       0.00013973 Ry

     total magnetization       =    -0.00 Bohr mag/cell
     absolute magnetization    =     0.03 Bohr mag/cell

     iteration # 29     ecut=    90.00 Ry     beta= 0.20
     CG style diagonalization
     c_bands:  1 eigenvalues not converged
     ethr =  1.16E-07,  avg # of iterations =  3.3

     negative rho (up, down):  1.665E-03 1.654E-03

     total cpu time spent up to now is      830.6 secs

     total energy              =   -2018.52501317 Ry
     estimated scf accuracy    <       0.00007524 Ry

     total magnetization       =    -0.00 Bohr mag/cell
     absolute magnetization    =     0.03 Bohr mag/cell

     iteration # 30     ecut=    90.00 Ry     beta= 0.20
     CG style diagonalization
     c_bands:  1 eigenvalues not converged
     c_bands:  1 eigenvalues not converged
     ethr =  6.27E-08,  avg # of iterations =  3.9

     negative rho (up, down):  1.665E-03 1.654E-03

     total cpu time spent up to now is      864.9 secs

     total energy              =   -2018.52502113 Ry
     estimated scf accuracy    <       0.00026547 Ry

     total magnetization       =    -0.00 Bohr mag/cell
     absolute magnetization    =     0.03 Bohr mag/cell

     iteration # 31     ecut=    90.00 Ry     beta= 0.20
     CG style diagonalization
     c_bands:  1 eigenvalues not converged
     ethr =  6.27E-08,  avg # of iterations =  3.2

     negative rho (up, down):  1.665E-03 1.654E-03

     total cpu time spent up to now is      893.3 secs

     total energy              =   -2018.52502750 Ry
     estimated scf accuracy    <       0.00019203 Ry

     total magnetization       =    -0.00 Bohr mag/cell
     absolute magnetization    =     0.03 Bohr mag/cell

     iteration # 32     ecut=    90.00 Ry     beta= 0.20
     CG style diagonalization
     ethr =  6.27E-08,  avg # of iterations =  3.0

     negative rho (up, down):  1.665E-03 1.654E-03

     total cpu time spent up to now is      920.2 secs

     total energy              =   -2018.52502897 Ry
     estimated scf accuracy    <       0.00006655 Ry

     total magnetization       =    -0.00 Bohr mag/cell
     absolute magnetization    =     0.03 Bohr mag/cell

     iteration # 33     ecut=    90.00 Ry     beta= 0.20
     CG style diagonalization
     ethr =  5.55E-08,  avg # of iterations =  3.0

     negative rho (up, down):  1.665E-03 1.654E-03

     total cpu time spent up to now is      947.0 secs

     total energy              =   -2018.52502556 Ry
     estimated scf accuracy    <       0.00012761 Ry

     total magnetization       =    -0.00 Bohr mag/cell
     absolute magnetization    =     0.03 Bohr mag/cell

     iteration # 34     ecut=    90.00 Ry     beta= 0.20
     CG style diagonalization
     c_bands:  1 eigenvalues not converged
     ethr =  5.55E-08,  avg # of iterations =  3.1

     negative rho (up, down):  1.665E-03 1.654E-03

     total cpu time spent up to now is      974.0 secs

     total energy              =   -2018.52503161 Ry
     estimated scf accuracy    <       0.00010898 Ry

     total magnetization       =    -0.00 Bohr mag/cell
     absolute magnetization    =     0.03 Bohr mag/cell

     iteration # 35     ecut=    90.00 Ry     beta= 0.20
     CG style diagonalization
     ethr =  5.55E-08,  avg # of iterations =  3.0

     negative rho (up, down):  1.665E-03 1.654E-03

     total cpu time spent up to now is     1000.5 secs

     total energy              =   -2018.52503434 Ry
     estimated scf accuracy    <       0.00002005 Ry

     total magnetization       =    -0.00 Bohr mag/cell
     absolute magnetization    =     0.03 Bohr mag/cell

     iteration # 36     ecut=    90.00 Ry     beta= 0.20
     CG style diagonalization
     c_bands:  1 eigenvalues not converged
     ethr =  1.67E-08,  avg # of iterations =  3.0

     negative rho (up, down):  1.665E-03 1.654E-03

     total cpu time spent up to now is     1027.1 secs

     total energy              =   -2018.52503392 Ry
     estimated scf accuracy    <       0.00002539 Ry

     total magnetization       =    -0.00 Bohr mag/cell
     absolute magnetization    =     0.03 Bohr mag/cell

     iteration # 37     ecut=    90.00 Ry     beta= 0.20
     CG style diagonalization
     c_bands:  1 eigenvalues not converged
     ethr =  1.67E-08,  avg # of iterations =  3.0

     negative rho (up, down):  1.665E-03 1.654E-03

     total cpu time spent up to now is     1053.6 secs

     total energy              =   -2018.52503431 Ry
     estimated scf accuracy    <       0.00002200 Ry

     total magnetization       =    -0.00 Bohr mag/cell
     absolute magnetization    =     0.03 Bohr mag/cell

     iteration # 38     ecut=    90.00 Ry     beta= 0.20
     CG style diagonalization
     c_bands:  1 eigenvalues not converged
     c_bands:  1 eigenvalues not converged
     c_bands:  1 eigenvalues not converged
     ethr =  1.67E-08,  avg # of iterations =  3.0

     negative rho (up, down):  1.665E-03 1.654E-03

     total cpu time spent up to now is     1080.1 secs

     total energy              =   -2018.52503520 Ry
     estimated scf accuracy    <       0.00001402 Ry

     total magnetization       =    -0.00 Bohr mag/cell
     absolute magnetization    =     0.03 Bohr mag/cell

     iteration # 39     ecut=    90.00 Ry     beta= 0.20
     CG style diagonalization
     c_bands:  1 eigenvalues not converged
     ethr =  1.17E-08,  avg # of iterations =  3.0

     negative rho (up, down):  1.665E-03 1.654E-03

     total cpu time spent up to now is     1106.6 secs

     total energy              =   -2018.52503538 Ry
     estimated scf accuracy    <       0.00000460 Ry

     total magnetization       =    -0.00 Bohr mag/cell
     absolute magnetization    =     0.03 Bohr mag/cell

     iteration # 40     ecut=    90.00 Ry     beta= 0.20
     CG style diagonalization
     ethr =  3.83E-09,  avg # of iterations =  3.7

     negative rho (up, down):  1.665E-03 1.654E-03

     total cpu time spent up to now is     1139.0 secs

     total energy              =   -2018.52503536 Ry
     estimated scf accuracy    <       0.00002376 Ry

     total magnetization       =    -0.00 Bohr mag/cell
     absolute magnetization    =     0.03 Bohr mag/cell

     iteration # 41     ecut=    90.00 Ry     beta= 0.20
     CG style diagonalization
     ethr =  3.83E-09,  avg # of iterations =  3.3

     negative rho (up, down):  1.665E-03 1.654E-03

     total cpu time spent up to now is     1168.3 secs

     total energy              =   -2018.52503624 Ry
     estimated scf accuracy    <       0.00001354 Ry

     total magnetization       =    -0.00 Bohr mag/cell
     absolute magnetization    =     0.03 Bohr mag/cell

     iteration # 42     ecut=    90.00 Ry     beta= 0.20
     CG style diagonalization
     c_bands:  1 eigenvalues not converged
     ethr =  3.83E-09,  avg # of iterations =  3.1

     negative rho (up, down):  1.665E-03 1.653E-03

     total cpu time spent up to now is     1195.2 secs

     total energy              =   -2018.52503672 Ry
     estimated scf accuracy    <       0.00000294 Ry

     total magnetization       =    -0.00 Bohr mag/cell
     absolute magnetization    =     0.03 Bohr mag/cell

     iteration # 43     ecut=    90.00 Ry     beta= 0.20
     CG style diagonalization
     ethr =  2.45E-09,  avg # of iterations =  3.0

     negative rho (up, down):  1.665E-03 1.654E-03

     total cpu time spent up to now is     1221.7 secs

     total energy              =   -2018.52503685 Ry
     estimated scf accuracy    <       0.00000091 Ry

     total magnetization       =    -0.00 Bohr mag/cell
     absolute magnetization    =     0.03 Bohr mag/cell

     iteration # 44     ecut=    90.00 Ry     beta= 0.20
     CG style diagonalization
     ethr =  7.61E-10,  avg # of iterations =  3.5

     negative rho (up, down):  1.665E-03 1.653E-03

     total cpu time spent up to now is     1252.5 secs

     total energy              =   -2018.52503700 Ry
     estimated scf accuracy    <       0.00000180 Ry

     total magnetization       =    -0.00 Bohr mag/cell
     absolute magnetization    =     0.03 Bohr mag/cell

     iteration # 45     ecut=    90.00 Ry     beta= 0.20
     CG style diagonalization
     c_bands:  1 eigenvalues not converged
     ethr =  7.61E-10,  avg # of iterations =  3.1

     negative rho (up, down):  1.665E-03 1.653E-03

     total cpu time spent up to now is     1279.6 secs

     total energy              =   -2018.52503708 Ry
     estimated scf accuracy    <       0.00000027 Ry

     total magnetization       =    -0.00 Bohr mag/cell
     absolute magnetization    =     0.03 Bohr mag/cell

     iteration # 46     ecut=    90.00 Ry     beta= 0.20
     CG style diagonalization
     ethr =  2.25E-10,  avg # of iterations =  3.8

     negative rho (up, down):  1.665E-03 1.653E-03

     total cpu time spent up to now is     1312.8 secs

     total energy              =   -2018.52503715 Ry
     estimated scf accuracy    <       0.00000035 Ry

     total magnetization       =    -0.00 Bohr mag/cell
     absolute magnetization    =     0.03 Bohr mag/cell

     iteration # 47     ecut=    90.00 Ry     beta= 0.20
     CG style diagonalization
     ethr =  2.25E-10,  avg # of iterations =  3.3

     negative rho (up, down):  1.665E-03 1.653E-03

     total cpu time spent up to now is     1341.3 secs

     total energy              =   -2018.52503715 Ry
     estimated scf accuracy    <       0.00000061 Ry

     total magnetization       =    -0.00 Bohr mag/cell
     absolute magnetization    =     0.03 Bohr mag/cell

     iteration # 48     ecut=    90.00 Ry     beta= 0.20
     CG style diagonalization
     ethr =  2.25E-10,  avg # of iterations =  3.1

     negative rho (up, down):  1.665E-03 1.653E-03

     total cpu time spent up to now is     1368.5 secs

     total energy              =   -2018.52503717 Ry
     estimated scf accuracy    <       0.00000043 Ry

     total magnetization       =    -0.00 Bohr mag/cell
     absolute magnetization    =     0.03 Bohr mag/cell

     iteration # 49     ecut=    90.00 Ry     beta= 0.20
     CG style diagonalization
     ethr =  2.25E-10,  avg # of iterations =  3.0

     negative rho (up, down):  1.665E-03 1.653E-03

     total cpu time spent up to now is     1395.0 secs

     total energy              =   -2018.52503720 Ry
     estimated scf accuracy    <       0.00000020 Ry

     total magnetization       =    -0.00 Bohr mag/cell
     absolute magnetization    =     0.03 Bohr mag/cell

     iteration # 50     ecut=    90.00 Ry     beta= 0.20
     CG style diagonalization
     ethr =  1.68E-10,  avg # of iterations =  3.0

     negative rho (up, down):  1.665E-03 1.653E-03

     total cpu time spent up to now is     1421.7 secs

     total energy              =   -2018.52503719 Ry
     estimated scf accuracy    <       0.00000048 Ry

     total magnetization       =    -0.00 Bohr mag/cell
     absolute magnetization    =     0.03 Bohr mag/cell

     iteration # 51     ecut=    90.00 Ry     beta= 0.20
     CG style diagonalization
     ethr =  1.68E-10,  avg # of iterations =  3.0

     negative rho (up, down):  1.665E-03 1.653E-03

     total cpu time spent up to now is     1448.3 secs

     total energy              =   -2018.52503722 Ry
     estimated scf accuracy    <       0.00000009 Ry

     total magnetization       =    -0.00 Bohr mag/cell
     absolute magnetization    =     0.03 Bohr mag/cell

     iteration # 52     ecut=    90.00 Ry     beta= 0.20
     CG style diagonalization
     ethr =  7.91E-11,  avg # of iterations =  3.0

     negative rho (up, down):  1.665E-03 1.653E-03

     total cpu time spent up to now is     1474.8 secs

     total energy              =   -2018.52503723 Ry
     estimated scf accuracy    <       0.00000006 Ry

     total magnetization       =    -0.00 Bohr mag/cell
     absolute magnetization    =     0.03 Bohr mag/cell

     iteration # 53     ecut=    90.00 Ry     beta= 0.20
     CG style diagonalization
     c_bands:  1 eigenvalues not converged
     ethr =  5.25E-11,  avg # of iterations =  3.1

     negative rho (up, down):  1.665E-03 1.653E-03

     total cpu time spent up to now is     1501.8 secs

     total energy              =   -2018.52503723 Ry
     estimated scf accuracy    <       0.00000010 Ry

     total magnetization       =    -0.00 Bohr mag/cell
     absolute magnetization    =     0.03 Bohr mag/cell

     iteration # 54     ecut=    90.00 Ry     beta= 0.20
     CG style diagonalization
     ethr =  5.25E-11,  avg # of iterations =  3.0

     negative rho (up, down):  1.665E-03 1.653E-03

     total cpu time spent up to now is     1528.6 secs

     total energy              =   -2018.52503723 Ry
     estimated scf accuracy    <       0.00000007 Ry

     total magnetization       =    -0.00 Bohr mag/cell
     absolute magnetization    =     0.03 Bohr mag/cell

     iteration # 55     ecut=    90.00 Ry     beta= 0.20
     CG style diagonalization
     ethr =  5.25E-11,  avg # of iterations =  3.0

     negative rho (up, down):  1.665E-03 1.653E-03

     total cpu time spent up to now is     1555.0 secs

     total energy              =   -2018.52503724 Ry
     estimated scf accuracy    <       0.00000007 Ry

     total magnetization       =    -0.00 Bohr mag/cell
     absolute magnetization    =     0.03 Bohr mag/cell

     iteration # 56     ecut=    90.00 Ry     beta= 0.20
     CG style diagonalization
     ethr =  5.25E-11,  avg # of iterations =  3.0

     negative rho (up, down):  1.665E-03 1.653E-03

     total cpu time spent up to now is     1581.5 secs

     total energy              =   -2018.52503724 Ry
     estimated scf accuracy    <       0.00000006 Ry

     total magnetization       =    -0.00 Bohr mag/cell
     absolute magnetization    =     0.03 Bohr mag/cell

     iteration # 57     ecut=    90.00 Ry     beta= 0.20
     CG style diagonalization
     ethr =  4.95E-11,  avg # of iterations =  3.0

     negative rho (up, down):  1.665E-03 1.653E-03

     total cpu time spent up to now is     1607.9 secs

     total energy              =   -2018.52503725 Ry
     estimated scf accuracy    <       0.00000003 Ry

     total magnetization       =    -0.00 Bohr mag/cell
     absolute magnetization    =     0.03 Bohr mag/cell

     iteration # 58     ecut=    90.00 Ry     beta= 0.20
     CG style diagonalization
     ethr =  2.77E-11,  avg # of iterations =  3.0

     negative rho (up, down):  1.665E-03 1.653E-03

     total cpu time spent up to now is     1634.3 secs

     total energy              =   -2018.52503726 Ry
     estimated scf accuracy    <       0.00000001 Ry

     total magnetization       =    -0.00 Bohr mag/cell
     absolute magnetization    =     0.03 Bohr mag/cell

     iteration # 59     ecut=    90.00 Ry     beta= 0.20
     CG style diagonalization
     ethr =  1.09E-11,  avg # of iterations =  3.3

     negative rho (up, down):  1.665E-03 1.653E-03

     total cpu time spent up to now is     1663.0 secs

     total energy              =   -2018.52503726 Ry
     estimated scf accuracy    <       0.00000001 Ry

     total magnetization       =    -0.00 Bohr mag/cell
     absolute magnetization    =     0.03 Bohr mag/cell

     iteration # 60     ecut=    90.00 Ry     beta= 0.20
     CG style diagonalization
     ethr =  1.09E-11,  avg # of iterations =  3.1

     negative rho (up, down):  1.665E-03 1.653E-03

     total cpu time spent up to now is     1690.3 secs

     total energy              =   -2018.52503726 Ry
     estimated scf accuracy    <       0.00000002 Ry

     total magnetization       =    -0.00 Bohr mag/cell
     absolute magnetization    =     0.03 Bohr mag/cell

     iteration # 61     ecut=    90.00 Ry     beta= 0.20
     CG style diagonalization
     ethr =  1.09E-11,  avg # of iterations =  3.1

     negative rho (up, down):  1.666E-03 1.653E-03

     total cpu time spent up to now is     1717.1 secs

     total energy              =   -2018.52503727 Ry
     estimated scf accuracy    <       0.00000003 Ry

     total magnetization       =    -0.00 Bohr mag/cell
     absolute magnetization    =     0.03 Bohr mag/cell

     iteration # 62     ecut=    90.00 Ry     beta= 0.20
     CG style diagonalization
     ethr =  1.09E-11,  avg # of iterations =  3.1

     negative rho (up, down):  1.666E-03 1.653E-03

     Magnetic moment per site:
     atom:    1    charge:   14.1929    magn:    0.0040    constr:    0.0000
     atom:    2    charge:   11.8096    magn:   -0.0036    constr:    0.0000
     atom:    3    charge:   14.1929    magn:    0.0032    constr:    0.0000
     atom:    4    charge:   11.8096    magn:   -0.0032    constr:    0.0000
     atom:    5    charge:   14.1929    magn:    0.0036    constr:    0.0000
     atom:    6    charge:   11.8096    magn:   -0.0040    constr:    0.0000
     atom:    7    charge:   14.1929    magn:    0.0024    constr:    0.0000
     atom:    8    charge:   11.8096    magn:   -0.0045    constr:    0.0000

     total cpu time spent up to now is     1744.2 secs

     End of self-consistent calculation

     Number of k-points >= 100: set verbosity='high' to print the bands.

     the Fermi energy is    17.9114 ev

!    total energy              =   -2018.52503728 Ry
     estimated scf accuracy    <          7.0E-09 Ry
     smearing contrib. (-TS)   =      -0.00525721 Ry
     internal energy E=F+TS    =   -2018.51978006 Ry

     total magnetization       =    -0.00 Bohr mag/cell
     absolute magnetization    =     0.03 Bohr mag/cell

     convergence has been achieved in  62 iterations

     negative rho (up, down):  1.666E-03 1.653E-03

     Forces acting on atoms (cartesian axes, Ry/au):

     atom    1 type  1   force =     0.00000029   -0.00000002    0.00000001
     atom    2 type  2   force =    -0.00000034   -0.00000037   -0.00000043
     atom    3 type  1   force =     0.00000010   -0.00000019   -0.00000006
     atom    4 type  2   force =     0.00000004    0.00000001    0.00000026
     atom    5 type  1   force =    -0.00000012   -0.00000019   -0.00000045
     atom    6 type  2   force =     0.00000067    0.00000050    0.00000106
     atom    7 type  1   force =    -0.00000050    0.00000032   -0.00000004
     atom    8 type  2   force =    -0.00000014   -0.00000005   -0.00000036

     Total force =     0.000002     Total SCF correction =     0.000001
     SCF correction compared to forces is large: reduce conv_thr to get better values


     Computing stress (Cartesian axis) and pressure


     negative rho (up, down):  1.666E-03 1.653E-03
          total   stress  (Ry/bohr**3)                   (kbar)     P=        0.03
   0.00000020   0.00000000   0.00000000            0.03        0.00        0.00
   0.00000000   0.00000020   0.00000000            0.00        0.03        0.00
   0.00000000   0.00000000   0.00000020            0.00        0.00        0.03


     Entering Dynamics;  it =     1   time =  0.00000 pico-seconds


     File pwscf.e deleted, as requested

     File pwscf.eal deleted, as requested

     File pwscf.ave deleted, as requested

     File pwscf.p deleted, as requested

     File pwscf.avec deleted, as requested

     File pwscf.tv deleted, as requested
  new lattice vectors (alat unit) :
   1.000003759  -0.000001514  -0.000000117
  -0.000001514   1.000001351   0.000001380
  -0.000000117   0.000001380   1.000004385
  new unit-cell volume =    654.5088 (a.u.)^3
  new positions in cryst coord
Fe      -0.001380972   0.500245303  -0.000620123
Cr       0.500064694  -0.000067495   0.499697371
Fe       0.000299965  -0.000003223   0.501130987
Cr       0.500213800   0.499582024  -0.000705945
Fe       0.501077308  -0.000744140  -0.000787564
Cr      -0.000313231   0.500376234   0.501003294
Fe       0.500003699   0.500502060   0.500276699
Cr       0.000034737   0.000109236   0.000005280
  new positions in cart coord (alat unit)
Fe      -0.001381735   0.500245980  -0.000619435
Cr       0.500066516  -0.000067562   0.499699503
Fe       0.000299908  -0.000002532   0.501133184
Cr       0.500214924   0.499581941  -0.000705317
Fe       0.501079193  -0.000744901  -0.000787627
Cr      -0.000314048   0.500377602   0.501006181
Fe       0.500004762   0.500502669   0.500279525
Cr       0.000034737   0.000109237   0.000005280

     Ekin =     0.03990183 Ry    T =    0.0 K  Etot =    -2018.48513100
     new unit-cell volume =    654.50880 a.u.^3 (    96.98820 Ang^3 )
     density =      7.38541 g/cm^3

CELL_PARAMETERS (angstrom)
   4.594517272  -0.000006955  -0.000000537
  -0.000006955   4.594506206   0.000006340
  -0.000000537   0.000006340   4.594520145

ATOMIC_POSITIONS (angstrom)
Fe           -0.0063483805        2.2983801566       -0.0028459952
Cr            2.2975556074       -0.0003104148        2.2958693670
Fe            0.0013779269       -0.0000116339        2.3024564160
Cr            2.2982374688        2.2953292276       -0.0032405792
Fe            2.3022083531       -0.0034224456       -0.0036187505
Cr           -0.0014428953        2.2989848906        2.3018729002
Fe            2.2972718790        2.2995595132        2.2985342758
Cr            0.0001595989        0.0005018874        0.0000242610



     Writing output data file ./pwscf.save/
     NEW-OLD atomic charge density approx. for the potential

     Check: negative core charge=   -0.000008

     negative rho (up, down):  1.657E-03 1.644E-03
     extrapolated charge  120.00110, renormalised to  120.00000
     Generating pointlists ...

     total cpu time spent up to now is     1764.0 secs

     Self-consistent Calculation

     iteration #  1     ecut=    90.00 Ry     beta= 0.20
     CG style diagonalization
     c_bands:  1 eigenvalues not converged
     c_bands:  2 eigenvalues not converged
     c_bands:  1 eigenvalues not converged
     c_bands:  1 eigenvalues not converged
     c_bands:  1 eigenvalues not converged
     c_bands:  1 eigenvalues not converged
     c_bands:  2 eigenvalues not converged
     c_bands:  3 eigenvalues not converged
     c_bands:  1 eigenvalues not converged
     c_bands:  3 eigenvalues not converged
     c_bands:  1 eigenvalues not converged
     c_bands:  1 eigenvalues not converged
     c_bands:  2 eigenvalues not converged
     c_bands:  1 eigenvalues not converged
     c_bands:  1 eigenvalues not converged
     c_bands:  1 eigenvalues not converged
     c_bands:  1 eigenvalues not converged
     c_bands:  3 eigenvalues not converged
     c_bands:  1 eigenvalues not converged
     c_bands:  1 eigenvalues not converged
     c_bands:  2 eigenvalues not converged
     c_bands:  1 eigenvalues not converged
     c_bands:  1 eigenvalues not converged
     c_bands:  1 eigenvalues not converged
     c_bands:  1 eigenvalues not converged
     c_bands:  4 eigenvalues not converged
     c_bands:  5 eigenvalues not converged
     c_bands:  2 eigenvalues not converged
     c_bands:  1 eigenvalues not converged
     c_bands:  1 eigenvalues not converged
     c_bands:  1 eigenvalues not converged
     c_bands:  1 eigenvalues not converged
     c_bands:  1 eigenvalues not converged
     c_bands:  2 eigenvalues not converged
     c_bands:  1 eigenvalues not converged
     c_bands:  2 eigenvalues not converged
     ethr =  1.00E-06,  avg # of iterations =  7.6

     negative rho (up, down):  1.657E-03 1.643E-03

     total cpu time spent up to now is     1831.1 secs

     total energy              =   -2018.52487220 Ry
     estimated scf accuracy    <       0.00022573 Ry

     total magnetization       =    -0.00 Bohr mag/cell
     absolute magnetization    =     0.03 Bohr mag/cell

     iteration #  2     ecut=    90.00 Ry     beta= 0.20
     CG style diagonalization
     c_bands:  1 eigenvalues not converged
     ethr =  1.88E-07,  avg # of iterations =  4.0

     negative rho (up, down):  1.658E-03 1.644E-03

     total cpu time spent up to now is     1865.7 secs

     total energy              =   -2018.52499401 Ry
     estimated scf accuracy    <       0.00010001 Ry

     total magnetization       =    -0.00 Bohr mag/cell
     absolute magnetization    =     0.03 Bohr mag/cell

     iteration #  3     ecut=    90.00 Ry     beta= 0.20
     CG style diagonalization
     ethr =  8.33E-08,  avg # of iterations =  3.8

     negative rho (up, down):  1.657E-03 1.643E-03

     total cpu time spent up to now is     1898.5 secs

     total energy              =   -2018.52498524 Ry
     estimated scf accuracy    <       0.00055079 Ry

     total magnetization       =    -0.00 Bohr mag/cell
     absolute magnetization    =     0.03 Bohr mag/cell

     iteration #  4     ecut=    90.00 Ry     beta= 0.20
     CG style diagonalization
     ethr =  8.33E-08,  avg # of iterations =  3.3

     negative rho (up, down):  1.657E-03 1.643E-03

     total cpu time spent up to now is     1927.5 secs

     total energy              =   -2018.52500530 Ry
     estimated scf accuracy    <       0.00001966 Ry

     total magnetization       =    -0.00 Bohr mag/cell
     absolute magnetization    =     0.03 Bohr mag/cell

     iteration #  5     ecut=    90.00 Ry     beta= 0.20
     CG style diagonalization
     ethr =  1.64E-08,  avg # of iterations =  4.0

     negative rho (up, down):  1.657E-03 1.643E-03

     total cpu time spent up to now is     1961.9 secs

     total energy              =   -2018.52499833 Ry
     estimated scf accuracy    <       0.00004752 Ry

     total magnetization       =    -0.00 Bohr mag/cell
     absolute magnetization    =     0.03 Bohr mag/cell

     iteration #  6     ecut=    90.00 Ry     beta= 0.20
     CG style diagonalization
     ethr =  1.64E-08,  avg # of iterations =  3.7

     negative rho (up, down):  1.657E-03 1.643E-03

     total cpu time spent up to now is     1994.4 secs

     total energy              =   -2018.52500182 Ry
     estimated scf accuracy    <       0.00000531 Ry

     total magnetization       =    -0.00 Bohr mag/cell
     absolute magnetization    =     0.03 Bohr mag/cell

     iteration #  7     ecut=    90.00 Ry     beta= 0.20
     CG style diagonalization
     ethr =  4.42E-09,  avg # of iterations =  4.1

     negative rho (up, down):  1.657E-03 1.643E-03

     total cpu time spent up to now is     2029.9 secs

     total energy              =   -2018.52500239 Ry
     estimated scf accuracy    <       0.00001173 Ry

     total magnetization       =    -0.00 Bohr mag/cell
     absolute magnetization    =     0.03 Bohr mag/cell

     iteration #  8     ecut=    90.00 Ry     beta= 0.20
     CG style diagonalization
     ethr =  4.42E-09,  avg # of iterations =  3.4

     negative rho (up, down):  1.657E-03 1.643E-03

     total cpu time spent up to now is     2059.8 secs

     total energy              =   -2018.52500312 Ry
     estimated scf accuracy    <       0.00000062 Ry

     total magnetization       =    -0.00 Bohr mag/cell
     absolute magnetization    =     0.03 Bohr mag/cell

     iteration #  9     ecut=    90.00 Ry     beta= 0.20
     CG style diagonalization
     ethr =  5.15E-10,  avg # of iterations =  5.6

     negative rho (up, down):  1.657E-03 1.643E-03

     total cpu time spent up to now is     2107.6 secs

     total energy              =   -2018.52500380 Ry
     estimated scf accuracy    <       0.00000192 Ry

     total magnetization       =    -0.00 Bohr mag/cell
     absolute magnetization    =     0.04 Bohr mag/cell

     iteration # 10     ecut=    90.00 Ry     beta= 0.20
     CG style diagonalization
     ethr =  5.15E-10,  avg # of iterations =  3.4

     negative rho (up, down):  1.657E-03 1.643E-03

     total cpu time spent up to now is     2137.5 secs

     total energy              =   -2018.52500366 Ry
     estimated scf accuracy    <       0.00000054 Ry

     total magnetization       =    -0.00 Bohr mag/cell
     absolute magnetization    =     0.04 Bohr mag/cell

     iteration # 11     ecut=    90.00 Ry     beta= 0.20
     CG style diagonalization
     ethr =  4.46E-10,  avg # of iterations =  3.1

     negative rho (up, down):  1.658E-03 1.643E-03

     total cpu time spent up to now is     2164.6 secs

     total energy              =   -2018.52500369 Ry
     estimated scf accuracy    <       0.00000021 Ry

     total magnetization       =    -0.00 Bohr mag/cell
     absolute magnetization    =     0.04 Bohr mag/cell

     iteration # 12     ecut=    90.00 Ry     beta= 0.20
     CG style diagonalization
     ethr =  1.77E-10,  avg # of iterations =  3.2

     negative rho (up, down):  1.658E-03 1.643E-03

     total cpu time spent up to now is     2193.0 secs

     total energy              =   -2018.52500372 Ry
     estimated scf accuracy    <       0.00000006 Ry

     total magnetization       =    -0.00 Bohr mag/cell
     absolute magnetization    =     0.04 Bohr mag/cell

     iteration # 13     ecut=    90.00 Ry     beta= 0.20
     CG style diagonalization
     ethr =  5.36E-11,  avg # of iterations =  4.3

     negative rho (up, down):  1.658E-03 1.643E-03

     total cpu time spent up to now is     2230.7 secs

     total energy              =   -2018.52500376 Ry
     estimated scf accuracy    <       0.00000020 Ry

     total magnetization       =    -0.00 Bohr mag/cell
     absolute magnetization    =     0.04 Bohr mag/cell

     iteration # 14     ecut=    90.00 Ry     beta= 0.20
     CG style diagonalization
     ethr =  5.36E-11,  avg # of iterations =  3.3

     negative rho (up, down):  1.658E-03 1.643E-03

     total cpu time spent up to now is     2259.8 secs

     total energy              =   -2018.52500377 Ry
     estimated scf accuracy    <       0.00000004 Ry

     total magnetization       =    -0.00 Bohr mag/cell
     absolute magnetization    =     0.04 Bohr mag/cell

     iteration # 15     ecut=    90.00 Ry     beta= 0.20
     CG style diagonalization
     ethr =  3.59E-11,  avg # of iterations =  3.1

     negative rho (up, down):  1.658E-03 1.643E-03

     total cpu time spent up to now is     2287.4 secs

     total energy              =   -2018.52500377 Ry
     estimated scf accuracy    <       0.00000007 Ry

     total magnetization       =    -0.00 Bohr mag/cell
     absolute magnetization    =     0.04 Bohr mag/cell

     iteration # 16     ecut=    90.00 Ry     beta= 0.20
     CG style diagonalization
     ethr =  3.59E-11,  avg # of iterations =  3.0

     negative rho (up, down):  1.658E-03 1.643E-03

     total cpu time spent up to now is     2314.0 secs

     total energy              =   -2018.52500378 Ry
     estimated scf accuracy    <       0.00000003 Ry

     total magnetization       =    -0.00 Bohr mag/cell
     absolute magnetization    =     0.04 Bohr mag/cell

     iteration # 17     ecut=    90.00 Ry     beta= 0.20
     CG style diagonalization
     ethr =  2.45E-11,  avg # of iterations =  3.0

     negative rho (up, down):  1.658E-03 1.642E-03

     total cpu time spent up to now is     2340.6 secs

     total energy              =   -2018.52500379 Ry
     estimated scf accuracy    <       0.00000002 Ry

     total magnetization       =    -0.00 Bohr mag/cell
     absolute magnetization    =     0.04 Bohr mag/cell

     iteration # 18     ecut=    90.00 Ry     beta= 0.20
     CG style diagonalization
     ethr =  1.92E-11,  avg # of iterations =  3.0

     negative rho (up, down):  1.658E-03 1.642E-03

     total cpu time spent up to now is     2367.1 secs

     total energy              =   -2018.52500379 Ry
     estimated scf accuracy    <       0.00000001 Ry

     total magnetization       =    -0.00 Bohr mag/cell
     absolute magnetization    =     0.04 Bohr mag/cell

     iteration # 19     ecut=    90.00 Ry     beta= 0.20
     CG style diagonalization
     ethr =  1.24E-11,  avg # of iterations =  3.4

     negative rho (up, down):  1.658E-03 1.642E-03

     total cpu time spent up to now is     2396.9 secs

     total energy              =   -2018.52500379 Ry
     estimated scf accuracy    <       0.00000003 Ry

     total magnetization       =    -0.00 Bohr mag/cell
     absolute magnetization    =     0.04 Bohr mag/cell

     iteration # 20     ecut=    90.00 Ry     beta= 0.20
     CG style diagonalization
     ethr =  1.24E-11,  avg # of iterations =  3.1

     negative rho (up, down):  1.658E-03 1.642E-03

     total cpu time spent up to now is     2424.4 secs

     total energy              =   -2018.52500380 Ry
     estimated scf accuracy    <       0.00000002 Ry

     total magnetization       =    -0.00 Bohr mag/cell
     absolute magnetization    =     0.04 Bohr mag/cell

     iteration # 21     ecut=    90.00 Ry     beta= 0.20
     CG style diagonalization
     ethr =  1.24E-11,  avg # of iterations =  3.0

     negative rho (up, down):  1.658E-03 1.642E-03

     total cpu time spent up to now is     2450.9 secs

     total energy              =   -2018.52500380 Ry
     estimated scf accuracy    <       0.00000002 Ry

     total magnetization       =    -0.00 Bohr mag/cell
     absolute magnetization    =     0.04 Bohr mag/cell

     iteration # 22     ecut=    90.00 Ry     beta= 0.20
     CG style diagonalization
     ethr =  1.24E-11,  avg # of iterations =  3.0

     negative rho (up, down):  1.658E-03 1.642E-03

     total cpu time spent up to now is     2477.4 secs

     total energy              =   -2018.52500380 Ry
     estimated scf accuracy    <       0.00000002 Ry

     total magnetization       =    -0.00 Bohr mag/cell
     absolute magnetization    =     0.04 Bohr mag/cell

     iteration # 23     ecut=    90.00 Ry     beta= 0.20
     CG style diagonalization
     ethr =  1.24E-11,  avg # of iterations =  3.0

     negative rho (up, down):  1.658E-03 1.642E-03

     total cpu time spent up to now is     2503.8 secs

     total energy              =   -2018.52500381 Ry
     estimated scf accuracy    <       0.00000001 Ry

     total magnetization       =    -0.00 Bohr mag/cell
     absolute magnetization    =     0.04 Bohr mag/cell

     iteration # 24     ecut=    90.00 Ry     beta= 0.20
     CG style diagonalization
     ethr =  1.10E-11,  avg # of iterations =  3.0

     negative rho (up, down):  1.658E-03 1.642E-03

     total cpu time spent up to now is     2530.3 secs

     total energy              =   -2018.52500381 Ry
     estimated scf accuracy    <       0.00000001 Ry

     total magnetization       =    -0.00 Bohr mag/cell
     absolute magnetization    =     0.04 Bohr mag/cell

     iteration # 25     ecut=    90.00 Ry     beta= 0.20
     CG style diagonalization
     ethr =  9.57E-12,  avg # of iterations =  3.1

     negative rho (up, down):  1.658E-03 1.642E-03

     total cpu time spent up to now is     2557.5 secs

     total energy              =   -2018.52500381 Ry
     estimated scf accuracy    <       0.00000001 Ry

     total magnetization       =    -0.00 Bohr mag/cell
     absolute magnetization    =     0.04 Bohr mag/cell

     iteration # 26     ecut=    90.00 Ry     beta= 0.20
     CG style diagonalization
     ethr =  9.42E-12,  avg # of iterations =  3.0

     negative rho (up, down):  1.658E-03 1.642E-03

     total cpu time spent up to now is     2584.0 secs

     total energy              =   -2018.52500382 Ry
     estimated scf accuracy    <       0.00000002 Ry

     total magnetization       =    -0.00 Bohr mag/cell
     absolute magnetization    =     0.04 Bohr mag/cell

     iteration # 27     ecut=    90.00 Ry     beta= 0.20
     CG style diagonalization
     ethr =  9.42E-12,  avg # of iterations =  3.0

     negative rho (up, down):  1.658E-03 1.642E-03

     total cpu time spent up to now is     2610.5 secs

     total energy              =   -2018.52500382 Ry
     estimated scf accuracy    <       0.00000001 Ry

     total magnetization       =    -0.00 Bohr mag/cell
     absolute magnetization    =     0.04 Bohr mag/cell

     iteration # 28     ecut=    90.00 Ry     beta= 0.20
     CG style diagonalization
     ethr =  8.75E-12,  avg # of iterations =  3.0

     negative rho (up, down):  1.658E-03 1.642E-03

     total cpu time spent up to now is     2637.0 secs

     total energy              =   -2018.52500382 Ry
     estimated scf accuracy    <       0.00000001 Ry

     total magnetization       =    -0.00 Bohr mag/cell
     absolute magnetization    =     0.04 Bohr mag/cell

     iteration # 29     ecut=    90.00 Ry     beta= 0.20
     CG style diagonalization
     ethr =  8.54E-12,  avg # of iterations =  3.0

     negative rho (up, down):  1.658E-03 1.642E-03

     total cpu time spent up to now is     2663.4 secs

     total energy              =   -2018.52500382 Ry
     estimated scf accuracy    <       0.00000001 Ry

     total magnetization       =    -0.00 Bohr mag/cell
     absolute magnetization    =     0.04 Bohr mag/cell

     iteration # 30     ecut=    90.00 Ry     beta= 0.20
     CG style diagonalization
     ethr =  8.54E-12,  avg # of iterations =  3.0

     negative rho (up, down):  1.658E-03 1.642E-03

     total cpu time spent up to now is     2689.8 secs

     total energy              =   -2018.52500382 Ry
     estimated scf accuracy    <       0.00000001 Ry

     total magnetization       =    -0.00 Bohr mag/cell
     absolute magnetization    =     0.04 Bohr mag/cell

     iteration # 31     ecut=    90.00 Ry     beta= 0.20
     CG style diagonalization
     ethr =  8.54E-12,  avg # of iterations =  3.0

     negative rho (up, down):  1.658E-03 1.642E-03

     total cpu time spent up to now is     2716.3 secs

     total energy              =   -2018.52500383 Ry
     estimated scf accuracy    <       0.00000001 Ry

     total magnetization       =    -0.00 Bohr mag/cell
     absolute magnetization    =     0.04 Bohr mag/cell

     iteration # 32     ecut=    90.00 Ry     beta= 0.20
     CG style diagonalization
     ethr =  8.54E-12,  avg # of iterations =  3.0

     negative rho (up, down):  1.658E-03 1.642E-03

     total cpu time spent up to now is     2742.8 secs

     total energy              =   -2018.52500382 Ry
     estimated scf accuracy    <       0.00000002 Ry

     total magnetization       =    -0.00 Bohr mag/cell
     absolute magnetization    =     0.04 Bohr mag/cell

     iteration # 33     ecut=    90.00 Ry     beta= 0.20
     CG style diagonalization
     ethr =  8.54E-12,  avg # of iterations =  3.0

     negative rho (up, down):  1.658E-03 1.642E-03

     total cpu time spent up to now is     2769.2 secs

     total energy              =   -2018.52500382 Ry
     estimated scf accuracy    <       0.00000001 Ry

     total magnetization       =    -0.00 Bohr mag/cell
     absolute magnetization    =     0.04 Bohr mag/cell

     iteration # 34     ecut=    90.00 Ry     beta= 0.20
     CG style diagonalization
     ethr =  8.54E-12,  avg # of iterations =  3.0

     negative rho (up, down):  1.659E-03 1.642E-03

     total cpu time spent up to now is     2795.6 secs

     total energy              =   -2018.52500383 Ry
     estimated scf accuracy    <       0.00000001 Ry

     total magnetization       =    -0.00 Bohr mag/cell
     absolute magnetization    =     0.04 Bohr mag/cell

     iteration # 35     ecut=    90.00 Ry     beta= 0.20
     CG style diagonalization
     ethr =  8.54E-12,  avg # of iterations =  3.0

     negative rho (up, down):  1.659E-03 1.642E-03

     total cpu time spent up to now is     2822.1 secs

     total energy              =   -2018.52500383 Ry
     estimated scf accuracy    <       0.00000001 Ry

     total magnetization       =    -0.00 Bohr mag/cell
     absolute magnetization    =     0.04 Bohr mag/cell

     iteration # 36     ecut=    90.00 Ry     beta= 0.20
     CG style diagonalization
     ethr =  8.54E-12,  avg # of iterations =  3.0

     negative rho (up, down):  1.659E-03 1.642E-03

     total cpu time spent up to now is     2848.8 secs

     total energy              =   -2018.52500383 Ry
     estimated scf accuracy    <       0.00000002 Ry

     total magnetization       =    -0.00 Bohr mag/cell
     absolute magnetization    =     0.04 Bohr mag/cell

     iteration # 37     ecut=    90.00 Ry     beta= 0.20
     CG style diagonalization
     ethr =  8.54E-12,  avg # of iterations =  3.0

     negative rho (up, down):  1.659E-03 1.642E-03

     total cpu time spent up to now is     2875.2 secs

     total energy              =   -2018.52500383 Ry
     estimated scf accuracy    <       0.00000001 Ry

     total magnetization       =    -0.00 Bohr mag/cell
     absolute magnetization    =     0.04 Bohr mag/cell

     iteration # 38     ecut=    90.00 Ry     beta= 0.20
     CG style diagonalization
     ethr =  8.54E-12,  avg # of iterations =  3.0

     negative rho (up, down):  1.659E-03 1.642E-03

     total cpu time spent up to now is     2901.7 secs

     total energy              =   -2018.52500383 Ry
     estimated scf accuracy    <       0.00000001 Ry

     total magnetization       =    -0.00 Bohr mag/cell
     absolute magnetization    =     0.04 Bohr mag/cell

     iteration # 39     ecut=    90.00 Ry     beta= 0.20
     CG style diagonalization
     ethr =  8.54E-12,  avg # of iterations =  3.0

     negative rho (up, down):  1.659E-03 1.642E-03

     total cpu time spent up to now is     2928.1 secs

     total energy              =   -2018.52500383 Ry
     estimated scf accuracy    <       0.00000001 Ry

     total magnetization       =    -0.00 Bohr mag/cell
     absolute magnetization    =     0.04 Bohr mag/cell

     iteration # 40     ecut=    90.00 Ry     beta= 0.20
     CG style diagonalization
     ethr =  8.54E-12,  avg # of iterations =  3.0

     negative rho (up, down):  1.659E-03 1.642E-03

     total cpu time spent up to now is     2954.5 secs

     total energy              =   -2018.52500383 Ry
     estimated scf accuracy    <       0.00000001 Ry

     total magnetization       =    -0.00 Bohr mag/cell
     absolute magnetization    =     0.04 Bohr mag/cell

     iteration # 41     ecut=    90.00 Ry     beta= 0.20
     CG style diagonalization
     ethr =  8.54E-12,  avg # of iterations =  3.0

     negative rho (up, down):  1.659E-03 1.642E-03

     total cpu time spent up to now is     2980.9 secs

     total energy              =   -2018.52500384 Ry
     estimated scf accuracy    <       0.00000001 Ry

     total magnetization       =    -0.00 Bohr mag/cell
     absolute magnetization    =     0.04 Bohr mag/cell

     iteration # 42     ecut=    90.00 Ry     beta= 0.20
     CG style diagonalization
     ethr =  8.54E-12,  avg # of iterations =  3.0

     negative rho (up, down):  1.659E-03 1.641E-03

     total cpu time spent up to now is     3007.4 secs

     total energy              =   -2018.52500384 Ry
     estimated scf accuracy    <       0.00000001 Ry

     total magnetization       =    -0.00 Bohr mag/cell
     absolute magnetization    =     0.04 Bohr mag/cell

     iteration # 43     ecut=    90.00 Ry     beta= 0.20
     CG style diagonalization
     ethr =  8.54E-12,  avg # of iterations =  3.3

     negative rho (up, down):  1.659E-03 1.642E-03

     total cpu time spent up to now is     3036.6 secs

     total energy              =   -2018.52500384 Ry
     estimated scf accuracy    <       0.00000001 Ry

     total magnetization       =    -0.00 Bohr mag/cell
     absolute magnetization    =     0.04 Bohr mag/cell

     iteration # 44     ecut=    90.00 Ry     beta= 0.20
     CG style diagonalization
     ethr =  8.54E-12,  avg # of iterations =  3.2

     negative rho (up, down):  1.659E-03 1.642E-03

     total cpu time spent up to now is     3064.4 secs

     total energy              =   -2018.52500384 Ry
     estimated scf accuracy    <       0.00000001 Ry

     total magnetization       =    -0.00 Bohr mag/cell
     absolute magnetization    =     0.04 Bohr mag/cell

     iteration # 45     ecut=    90.00 Ry     beta= 0.20
     CG style diagonalization
     ethr =  8.54E-12,  avg # of iterations =  3.0

     negative rho (up, down):  1.659E-03 1.641E-03

     total cpu time spent up to now is     3090.9 secs

     total energy              =   -2018.52500385 Ry
     estimated scf accuracy    <       0.00000002 Ry

     total magnetization       =    -0.00 Bohr mag/cell
     absolute magnetization    =     0.04 Bohr mag/cell

     iteration # 46     ecut=    90.00 Ry     beta= 0.20
     CG style diagonalization
     ethr =  8.54E-12,  avg # of iterations =  3.2

     negative rho (up, down):  1.661E-03 1.640E-03

     total cpu time spent up to now is     3119.2 secs

     total energy              =   -2018.52500377 Ry
     estimated scf accuracy    <       0.00000002 Ry

     total magnetization       =    -0.00 Bohr mag/cell
     absolute magnetization    =     0.04 Bohr mag/cell

     iteration # 47     ecut=    90.00 Ry     beta= 0.20
     CG style diagonalization
     ethr =  8.54E-12,  avg # of iterations =  4.9

     negative rho (up, down):  1.660E-03 1.640E-03

     total cpu time spent up to now is     3161.6 secs

     total energy              =   -2018.52500388 Ry
     estimated scf accuracy    <       0.00000002 Ry

     total magnetization       =    -0.01 Bohr mag/cell
     absolute magnetization    =     0.05 Bohr mag/cell

     iteration # 48     ecut=    90.00 Ry     beta= 0.20
     CG style diagonalization
     ethr =  8.54E-12,  avg # of iterations =  3.7

     negative rho (up, down):  1.653E-03 1.647E-03

     total cpu time spent up to now is     3193.8 secs

     total energy              =   -2018.52500106 Ry
     estimated scf accuracy    <       0.00000004 Ry

     total magnetization       =    -0.01 Bohr mag/cell
     absolute magnetization    =     0.05 Bohr mag/cell

     iteration # 49     ecut=    90.00 Ry     beta= 0.20
     CG style diagonalization
     c_bands:  1 eigenvalues not converged
     c_bands:  1 eigenvalues not converged
     c_bands:  1 eigenvalues not converged
     c_bands:  1 eigenvalues not converged
     c_bands:  1 eigenvalues not converged
     c_bands:  1 eigenvalues not converged
     ethr =  8.54E-12,  avg # of iterations =  6.9

     negative rho (up, down):  1.654E-03 1.647E-03

     total cpu time spent up to now is     3253.5 secs

     total energy              =   -2018.52500367 Ry
     estimated scf accuracy    <       0.00000001 Ry

     total magnetization       =    -0.00 Bohr mag/cell
     absolute magnetization    =     0.02 Bohr mag/cell

     iteration # 50     ecut=    90.00 Ry     beta= 0.20
     CG style diagonalization
     ethr =  8.54E-12,  avg # of iterations =  3.6

     negative rho (up, down):  1.652E-03 1.648E-03

     total cpu time spent up to now is     3284.7 secs

     total energy              =   -2018.52500356 Ry
     estimated scf accuracy    <       0.00000001 Ry

     total magnetization       =    -0.00 Bohr mag/cell
     absolute magnetization    =     0.02 Bohr mag/cell

     iteration # 51     ecut=    90.00 Ry     beta= 0.20
     CG style diagonalization
     ethr =  8.54E-12,  avg # of iterations =  4.3

     negative rho (up, down):  1.653E-03 1.648E-03

     Magnetic moment per site:
     atom:    1    charge:   14.1930    magn:    0.0020    constr:    0.0000
     atom:    2    charge:   11.8096    magn:   -0.0010    constr:    0.0000
     atom:    3    charge:   14.1929    magn:    0.0012    constr:    0.0000
     atom:    4    charge:   11.8097    magn:   -0.0008    constr:    0.0000
     atom:    5    charge:   14.1929    magn:    0.0015    constr:    0.0000
     atom:    6    charge:   11.8097    magn:   -0.0014    constr:    0.0000
     atom:    7    charge:   14.1929    magn:   -0.0000    constr:    0.0000
     atom:    8    charge:   11.8096    magn:   -0.0021    constr:    0.0000

     total cpu time spent up to now is     3322.1 secs

     End of self-consistent calculation

     Number of k-points >= 100: set verbosity='high' to print the bands.

     the Fermi energy is    17.9112 ev

!    total energy              =   -2018.52500366 Ry
     estimated scf accuracy    <          3.7E-09 Ry
     smearing contrib. (-TS)   =      -0.00526381 Ry
     internal energy E=F+TS    =   -2018.51973985 Ry

     total magnetization       =    -0.00 Bohr mag/cell
     absolute magnetization    =     0.01 Bohr mag/cell

     convergence has been achieved in  51 iterations

     negative rho (up, down):  1.653E-03 1.648E-03

     Forces acting on atoms (cartesian axes, Ry/au):

     atom    1 type  1   force =     0.00117087    0.00000517    0.00178972
     atom    2 type  2   force =    -0.00012906    0.00093282   -0.00127829
     atom    3 type  1   force =     0.00000648    0.00039296   -0.00096192
     atom    4 type  2   force =    -0.00206207   -0.00102672    0.00107787
     atom    5 type  1   force =    -0.00071264   -0.00005726    0.00042624
     atom    6 type  2   force =     0.00056011   -0.00049309   -0.00157417
     atom    7 type  1   force =    -0.00046393   -0.00033464   -0.00124813
     atom    8 type  2   force =     0.00163024    0.00058077    0.00176868

     Total force =     0.005136     Total SCF correction =     0.000014


     Computing stress (Cartesian axis) and pressure


     negative rho (up, down):  1.653E-03 1.648E-03
          total   stress  (Ry/bohr**3)                   (kbar)     P=        0.09
   0.00000062   0.00000005   0.00000001            0.09        0.01        0.00
   0.00000005   0.00000046  -0.00000001            0.01        0.07       -0.00
   0.00000001  -0.00000001   0.00000069            0.00       -0.00        0.10


     Entering Dynamics;  it =     2   time =  0.00097 pico-seconds

  new lattice vectors (alat unit) :
   1.000014088  -0.000005647  -0.000000435
  -0.000005647   1.000005075   0.000005152
  -0.000000435   0.000005152   1.000016430
  new unit-cell volume =    654.5259 (a.u.)^3
  new positions in cryst coord
Fe      -0.002946149   0.500523527  -0.001321768
Cr       0.500137939  -0.000143098   0.499352835
Fe       0.000640190  -0.000006511   0.502412830
Cr       0.500454193   0.499106919  -0.001505522
Fe       0.502298502  -0.001588187  -0.001680401
Cr      -0.000667923   0.500802450   0.502139617
Fe       0.500007458   0.501071177   0.500589345
Cr       0.000075792   0.000233722   0.000013065
  new positions in cart coord (alat unit)
Fe      -0.002949016   0.500526077  -0.001319210
Cr       0.500144768  -0.000143350   0.499360820
Fe       0.000639980  -0.000003927   0.502421084
Cr       0.500458425   0.499106618  -0.001503193
Fe       0.502305588  -0.001591040  -0.001680655
Cr      -0.000670979   0.500807583   0.502150448
Fe       0.500011454   0.501073476   0.500599933
Cr       0.000075791   0.000233723   0.000013066

     Ekin =     0.03988000 Ry    T =  466.4 K  Etot =    -2018.48511921
     new unit-cell volume =    654.52588 a.u.^3 (    96.99073 Ang^3 )
     density =      7.38522 g/cm^3

CELL_PARAMETERS (angstrom)
   4.594564728  -0.000025946  -0.000001998
  -0.000025946   4.594523318   0.000023671
  -0.000001998   0.000023671   4.594575486

ATOMIC_POSITIONS (angstrom)
Fe           -0.0135492560        2.2996670594       -0.0060611100
Cr            2.2979151374       -0.0006586225        2.2943132896
Fe            0.0029403891       -0.0000180407        2.3083736689
Cr            2.2993562350        2.2931453572       -0.0069064192
Fe            2.3078430252       -0.0073100329       -0.0077217708
Cr           -0.0030828139        2.3009604400        2.3071302317
Fe            2.2973026276        2.3021820847        2.3000063933
Cr            0.0003482234        0.0010738409        0.0000600328



     Writing output data file ./pwscf.save/
     NEW-OLD atomic charge density approx. for the potential

     Check: negative core charge=   -0.000008

     negative rho (up, down):  1.668E-03 1.662E-03
     extrapolated charge  120.00303, renormalised to  120.00000
     Generating pointlists ...

     total cpu time spent up to now is     3341.8 secs

     Self-consistent Calculation

     iteration #  1     ecut=    90.00 Ry     beta= 0.20
     CG style diagonalization
     c_bands:  1 eigenvalues not converged
     c_bands:  1 eigenvalues not converged
     c_bands:  2 eigenvalues not converged
     c_bands:  1 eigenvalues not converged
     c_bands:  1 eigenvalues not converged
     c_bands:  2 eigenvalues not converged
     c_bands:  1 eigenvalues not converged
     c_bands:  1 eigenvalues not converged
     c_bands:  3 eigenvalues not converged
     c_bands:  2 eigenvalues not converged
     c_bands:  2 eigenvalues not converged
     c_bands:  1 eigenvalues not converged
     c_bands:  4 eigenvalues not converged
     c_bands:  2 eigenvalues not converged
     c_bands:  2 eigenvalues not converged
     c_bands:  1 eigenvalues not converged
     c_bands:  3 eigenvalues not converged
     c_bands:  5 eigenvalues not converged
     c_bands:  2 eigenvalues not converged
     c_bands:  5 eigenvalues not converged
[...]
     absolute magnetization    =     0.05 Bohr mag/cell

     iteration # 19     ecut=    90.00 Ry     beta= 0.20
     CG style diagonalization
     ethr =  2.02E-09,  avg # of iterations =  3.0

     negative rho (up, down):  1.926E-03 1.943E-03

     total cpu time spent up to now is   179234.0 secs

     total energy              =   -2018.72407488 Ry
     estimated scf accuracy    <       0.00000093 Ry

     total magnetization       =    -0.00 Bohr mag/cell
     absolute magnetization    =     0.05 Bohr mag/cell

     iteration # 20     ecut=    90.00 Ry     beta= 0.20
     CG style diagonalization
     ethr =  7.76E-10,  avg # of iterations =  3.1

     negative rho (up, down):  1.926E-03 1.943E-03

     total cpu time spent up to now is   179260.9 secs

     total energy              =   -2018.72407487 Ry
     estimated scf accuracy    <       0.00000068 Ry

     total magnetization       =    -0.00 Bohr mag/cell
     absolute magnetization    =     0.05 Bohr mag/cell

     iteration # 21     ecut=    90.00 Ry     beta= 0.20
     CG style diagonalization
     ethr =  5.65E-10,  avg # of iterations =  3.0

     negative rho (up, down):  1.926E-03 1.943E-03

     total cpu time spent up to now is   179287.2 secs

     total energy              =   -2018.72407484 Ry
     estimated scf accuracy    <       0.00000062 Ry

     total magnetization       =    -0.00 Bohr mag/cell
     absolute magnetization    =     0.05 Bohr mag/cell

     iteration # 22     ecut=    90.00 Ry     beta= 0.20
     CG style diagonalization
     ethr =  5.14E-10,  avg # of iterations =  3.0

     negative rho (up, down):  1.926E-03 1.943E-03

     total cpu time spent up to now is   179313.5 secs

     total energy              =   -2018.72407479 Ry
     estimated scf accuracy    <       0.00000064 Ry

     total magnetization       =    -0.00 Bohr mag/cell
     absolute magnetization    =     0.05 Bohr mag/cell

     iteration # 23     ecut=    90.00 Ry     beta= 0.20
     CG style diagonalization
     ethr =  5.14E-10,  avg # of iterations =  3.0

     negative rho (up, down):  1.926E-03 1.943E-03

     total cpu time spent up to now is   179339.6 secs

     total energy              =   -2018.72407478 Ry
     estimated scf accuracy    <       0.00000155 Ry

     total magnetization       =    -0.00 Bohr mag/cell
     absolute magnetization    =     0.05 Bohr mag/cell

     iteration # 24     ecut=    90.00 Ry     beta= 0.20
     CG style diagonalization
     ethr =  5.14E-10,  avg # of iterations =  3.0

     negative rho (up, down):  1.926E-03 1.943E-03

     total cpu time spent up to now is   179365.6 secs

     total energy              =   -2018.72407484 Ry
     estimated scf accuracy    <       0.00000030 Ry

     total magnetization       =    -0.00 Bohr mag/cell
     absolute magnetization    =     0.05 Bohr mag/cell

     iteration # 25     ecut=    90.00 Ry     beta= 0.20
     CG style diagonalization
     ethr =  2.53E-10,  avg # of iterations =  3.0

     negative rho (up, down):  1.926E-03 1.943E-03

     total cpu time spent up to now is   179391.9 secs

     total energy              =   -2018.72407483 Ry
     estimated scf accuracy    <       0.00000051 Ry

     total magnetization       =    -0.00 Bohr mag/cell
     absolute magnetization    =     0.05 Bohr mag/cell

     iteration # 26     ecut=    90.00 Ry     beta= 0.20
     CG style diagonalization
     ethr =  2.53E-10,  avg # of iterations =  3.0

     negative rho (up, down):  1.926E-03 1.943E-03

     total cpu time spent up to now is   179418.1 secs

     total energy              =   -2018.72407485 Ry
     estimated scf accuracy    <       0.00000013 Ry

     total magnetization       =    -0.00 Bohr mag/cell
     absolute magnetization    =     0.05 Bohr mag/cell

     iteration # 27     ecut=    90.00 Ry     beta= 0.20
     CG style diagonalization
     ethr =  1.11E-10,  avg # of iterations =  3.1

     negative rho (up, down):  1.926E-03 1.943E-03

     total cpu time spent up to now is   179444.8 secs

     total energy              =   -2018.72407485 Ry
     estimated scf accuracy    <       0.00000009 Ry

     total magnetization       =    -0.00 Bohr mag/cell
     absolute magnetization    =     0.05 Bohr mag/cell

     iteration # 28     ecut=    90.00 Ry     beta= 0.20
     CG style diagonalization
     ethr =  7.40E-11,  avg # of iterations =  3.2

     negative rho (up, down):  1.926E-03 1.943E-03

     total cpu time spent up to now is   179472.6 secs

     total energy              =   -2018.72407484 Ry
     estimated scf accuracy    <       0.00000008 Ry

     total magnetization       =    -0.00 Bohr mag/cell
     absolute magnetization    =     0.05 Bohr mag/cell

     iteration # 29     ecut=    90.00 Ry     beta= 0.20
     CG style diagonalization
     ethr =  6.55E-11,  avg # of iterations =  3.1

     negative rho (up, down):  1.926E-03 1.943E-03

     total cpu time spent up to now is   179499.5 secs

     total energy              =   -2018.72407485 Ry
     estimated scf accuracy    <       0.00000012 Ry

     total magnetization       =    -0.00 Bohr mag/cell
     absolute magnetization    =     0.05 Bohr mag/cell

     iteration # 30     ecut=    90.00 Ry     beta= 0.20
     CG style diagonalization
     ethr =  6.55E-11,  avg # of iterations =  3.0

     negative rho (up, down):  1.926E-03 1.943E-03

     total cpu time spent up to now is   179525.7 secs

     total energy              =   -2018.72407485 Ry
     estimated scf accuracy    <       0.00000005 Ry

     total magnetization       =    -0.00 Bohr mag/cell
     absolute magnetization    =     0.05 Bohr mag/cell

     iteration # 31     ecut=    90.00 Ry     beta= 0.20
     CG style diagonalization
     ethr =  4.40E-11,  avg # of iterations =  3.3

     negative rho (up, down):  1.926E-03 1.943E-03

     total cpu time spent up to now is   179554.1 secs

     total energy              =   -2018.72407484 Ry
     estimated scf accuracy    <       0.00000024 Ry

     total magnetization       =    -0.00 Bohr mag/cell
     absolute magnetization    =     0.05 Bohr mag/cell

     iteration # 32     ecut=    90.00 Ry     beta= 0.20
     CG style diagonalization
     ethr =  4.40E-11,  avg # of iterations =  3.1

     negative rho (up, down):  1.926E-03 1.943E-03

     total cpu time spent up to now is   179581.1 secs

     total energy              =   -2018.72407485 Ry
     estimated scf accuracy    <       0.00000005 Ry

     total magnetization       =    -0.00 Bohr mag/cell
     absolute magnetization    =     0.05 Bohr mag/cell

     iteration # 33     ecut=    90.00 Ry     beta= 0.20
     CG style diagonalization
     ethr =  4.02E-11,  avg # of iterations =  3.0

     negative rho (up, down):  1.926E-03 1.943E-03

     total cpu time spent up to now is   179607.1 secs

     total energy              =   -2018.72407486 Ry
     estimated scf accuracy    <       0.00000003 Ry

     total magnetization       =    -0.00 Bohr mag/cell
     absolute magnetization    =     0.05 Bohr mag/cell

     iteration # 34     ecut=    90.00 Ry     beta= 0.20
     CG style diagonalization
     ethr =  2.46E-11,  avg # of iterations =  3.0

     negative rho (up, down):  1.926E-03 1.943E-03

     total cpu time spent up to now is   179633.2 secs

     total energy              =   -2018.72407486 Ry
     estimated scf accuracy    <       0.00000002 Ry

     total magnetization       =    -0.00 Bohr mag/cell
     absolute magnetization    =     0.05 Bohr mag/cell

     iteration # 35     ecut=    90.00 Ry     beta= 0.20
     CG style diagonalization
     ethr =  1.28E-11,  avg # of iterations =  3.1

     negative rho (up, down):  1.926E-03 1.943E-03

     total cpu time spent up to now is   179660.3 secs

     total energy              =   -2018.72407486 Ry
     estimated scf accuracy    <       0.00000001 Ry

     total magnetization       =    -0.00 Bohr mag/cell
     absolute magnetization    =     0.05 Bohr mag/cell

     iteration # 36     ecut=    90.00 Ry     beta= 0.20
     CG style diagonalization
     ethr =  1.24E-11,  avg # of iterations =  3.1

     negative rho (up, down):  1.925E-03 1.943E-03

     total cpu time spent up to now is   179686.9 secs

     total energy              =   -2018.72407486 Ry
     estimated scf accuracy    <       0.00000002 Ry

     total magnetization       =    -0.00 Bohr mag/cell
     absolute magnetization    =     0.05 Bohr mag/cell

     iteration # 37     ecut=    90.00 Ry     beta= 0.20
     CG style diagonalization
     ethr =  1.24E-11,  avg # of iterations =  3.1

     negative rho (up, down):  1.925E-03 1.943E-03

     total cpu time spent up to now is   179714.1 secs

     total energy              =   -2018.72407486 Ry
     estimated scf accuracy    <       0.00000001 Ry

     total magnetization       =    -0.00 Bohr mag/cell
     absolute magnetization    =     0.05 Bohr mag/cell

     iteration # 38     ecut=    90.00 Ry     beta= 0.20
     CG style diagonalization
     ethr =  9.79E-12,  avg # of iterations =  3.0

     negative rho (up, down):  1.925E-03 1.943E-03

     total cpu time spent up to now is   179740.5 secs

     total energy              =   -2018.72407486 Ry
     estimated scf accuracy    <       0.00000002 Ry

     total magnetization       =    -0.00 Bohr mag/cell
     absolute magnetization    =     0.05 Bohr mag/cell

     iteration # 39     ecut=    90.00 Ry     beta= 0.20
     CG style diagonalization
     ethr =  9.79E-12,  avg # of iterations =  3.0

     negative rho (up, down):  1.925E-03 1.943E-03

     total cpu time spent up to now is   179766.6 secs

     total energy              =   -2018.72407486 Ry
     estimated scf accuracy    <       0.00000002 Ry

     total magnetization       =    -0.00 Bohr mag/cell
     absolute magnetization    =     0.05 Bohr mag/cell

     iteration # 40     ecut=    90.00 Ry     beta= 0.20
     CG style diagonalization
     ethr =  9.79E-12,  avg # of iterations =  3.0

     negative rho (up, down):  1.925E-03 1.943E-03

     total cpu time spent up to now is   179792.6 secs

     total energy              =   -2018.72407486 Ry
     estimated scf accuracy    <       0.00000001 Ry

     total magnetization       =    -0.00 Bohr mag/cell
     absolute magnetization    =     0.05 Bohr mag/cell

     iteration # 41     ecut=    90.00 Ry     beta= 0.20
     CG style diagonalization
     ethr =  8.63E-12,  avg # of iterations =  3.0

     negative rho (up, down):  1.925E-03 1.944E-03

     Magnetic moment per site:
     atom:    1    charge:   13.7108    magn:   -0.0032    constr:    0.0000
     atom:    2    charge:   11.3685    magn:    0.0041    constr:    0.0000
     atom:    3    charge:   13.7094    magn:    0.0033    constr:    0.0000
     atom:    4    charge:   11.3620    magn:    0.0072    constr:    0.0000
     atom:    5    charge:   13.6913    magn:   -0.0097    constr:    0.0000
     atom:    6    charge:   11.3746    magn:    0.0043    constr:    0.0000
     atom:    7    charge:   13.7142    magn:   -0.0097    constr:    0.0000
     atom:    8    charge:   11.3764    magn:   -0.0012    constr:    0.0000

     total cpu time spent up to now is   179818.7 secs

     End of self-consistent calculation

     Number of k-points >= 100: set verbosity='high' to print the bands.

     the Fermi energy is    18.8141 ev

!    total energy              =   -2018.72407487 Ry
     estimated scf accuracy    <          5.1E-09 Ry
     smearing contrib. (-TS)   =      -0.00857224 Ry
     internal energy E=F+TS    =   -2018.71550262 Ry

     total magnetization       =    -0.00 Bohr mag/cell
     absolute magnetization    =     0.05 Bohr mag/cell

     convergence has been achieved in  41 iterations

     negative rho (up, down):  1.925E-03 1.944E-03

     Forces acting on atoms (cartesian axes, Ry/au):

     atom    1 type  1   force =    -0.00857355   -0.00880806   -0.00714624
     atom    2 type  2   force =     0.03336915    0.04094399    0.02684552
     atom    3 type  1   force =     0.01956435   -0.02144536    0.04874085
     atom    4 type  2   force =    -0.03439538    0.01404641   -0.02637583
     atom    5 type  1   force =    -0.01772801   -0.00588445   -0.02408007
     atom    6 type  2   force =     0.00807271   -0.01474629   -0.01881692
     atom    7 type  1   force =     0.01560707    0.04127211   -0.01535057
     atom    8 type  2   force =    -0.01591634   -0.04537835    0.01618325

     Total force =     0.123813     Total SCF correction =     0.000074


     Computing stress (Cartesian axis) and pressure


     negative rho (up, down):  1.925E-03 1.944E-03
          total   stress  (Ry/bohr**3)                   (kbar)     P=       27.35
   0.00009839   0.00014494   0.00009181           14.47       21.32       13.51
   0.00014494   0.00028472  -0.00006232           21.32       41.88       -9.17
   0.00009181  -0.00006232   0.00017456           13.51       -9.17       25.68


     Entering Dynamics;  it =   102   time =  0.09772 pico-seconds

  new lattice vectors (alat unit) :
   0.987367189   0.033820198   0.025575523
   0.033820198   0.979962644  -0.010610955
   0.025575523  -0.010610955   0.987356548
  new unit-cell volume =    624.0352 (a.u.)^3
  new positions in cryst coord
Fe      -0.097034523   0.532594714   0.012456483
Cr       0.517855921   0.068815436   0.410853346
Fe       0.024012165  -0.002853690   0.595683784
Cr       0.405186744   0.403045558  -0.028509382
Fe       0.575891052  -0.086485576  -0.082590801
Cr       0.012949349   0.486527198   0.505133471
Fe       0.494636194   0.565131568   0.473343381
Cr       0.066687792   0.032603960   0.113711673
  new positions in cart coord (alat unit)
Fe      -0.077477665   0.518509022   0.004165943
Cr       0.524149086   0.080591000   0.418172981
Fe       0.038847236  -0.008305187   0.588796689
Cr       0.412970034   0.408975598  -0.022062761
Fe       0.563578668  -0.064399517  -0.065900159
Cr       0.042159261   0.471856481   0.493915509
Fe       0.519606415   0.565513895   0.474012680
Cr       0.069856246   0.032999468   0.113633581

     Ekin =     0.05980872 Ry    T =  681.8 K  Etot =    -2018.66426191
     new unit-cell volume =    624.03517 a.u.^3 (    92.47247 Ang^3 )
     density =      7.74606 g/cm^3

CELL_PARAMETERS (angstrom)
   4.536458551   0.155386898   0.117506741
   0.155386898   4.502438370  -0.048752034
   0.117506741  -0.048752034   4.536409662

ATOMIC_POSITIONS (angstrom)
Fe           -0.3559711306        2.3822897027        0.0191404247
Cr            2.4082029766        0.3702753473        1.9212957598
Fe            0.1784836271       -0.0381581820        2.7052263876
Cr            1.8973908226        1.8790383863       -0.1013673534
Fe            2.5893621879       -0.2958835801       -0.3027782809
Cr            0.1937007253        2.1679446003        2.2692948046
Fe            2.3873316722        2.5982535892        2.1778512599
Cr            0.3209545226        0.1516160549        0.5220894859



     Maximum number of iterations reached, stopping

     init_run     :     11.20s CPU     11.67s WALL (       1 calls)
     electrons    : 172896.31s CPU 177807.48s WALL (     102 calls)
     update_pot   :    208.03s CPU    211.67s WALL (     101 calls)
     forces       :    540.12s CPU    561.95s WALL (     102 calls)
     stress       :   1057.16s CPU   1080.93s WALL (     102 calls)

     Called by init_run:
     wfcinit      :      8.80s CPU      9.04s WALL (       1 calls)
     potinit      :      0.73s CPU      0.80s WALL (       1 calls)
     hinit0       :      1.19s CPU      1.24s WALL (       1 calls)

     Called by electrons:
     c_bands      : 151624.70s CPU 154474.55s WALL (    5954 calls)
     sum_band     :  17276.75s CPU  18488.34s WALL (    5954 calls)
     v_of_rho     :    719.67s CPU    790.71s WALL (    6056 calls)
     newd         :   2084.30s CPU   2732.26s WALL (    6056 calls)
     PAW_pot      :   1119.88s CPU   1223.91s WALL (    6157 calls)
     mix_rho      :     74.10s CPU     98.50s WALL (    5954 calls)

     Called by c_bands:
     init_us_2    :    758.27s CPU    785.99s WALL ( 1538964 calls)
     ccgdiagg     : 115016.40s CPU 117160.03s WALL (  753576 calls)
     wfcrot       :  35447.53s CPU  36085.34s WALL (  740850 calls)

     Called by *cgdiagg:
     h_psi        :  84098.66s CPU  85728.31s WALL (******** calls)
     s_psi        :  27568.02s CPU  28054.98s WALL (******** calls)

     Called by h_psi:
     h_psi:calbec :  18208.74s CPU  18622.39s WALL (******** calls)
     vloc_psi     :  49253.96s CPU  50219.86s WALL (******** calls)
     add_vuspsi   :  15832.15s CPU  16086.36s WALL (******** calls)
     hs_1psi      :  73703.88s CPU  75081.43s WALL (******** calls)
     s_1psi       :  25463.88s CPU  25918.34s WALL (******** calls)

     General routines
     calbec       :  36278.07s CPU  37132.57s WALL (******** calls)
     fft          :    298.07s CPU    414.51s WALL (  155377 calls)
     ffts         :      8.98s CPU      9.17s WALL (   24020 calls)
     fftw         :  52243.00s CPU  53270.05s WALL (******** calls)
     interpolate  :     29.37s CPU     42.75s WALL (   12112 calls)

     Parallel routines
     fft_scatt_xy :   4931.41s CPU   5018.02s WALL (******** calls)
     fft_scatt_yz :  22339.03s CPU  22904.06s WALL (******** calls)

     PWSCF        :   2d 0h34m CPU   2d 1h57m WALL


   This run was terminated on:  22:46: 3  12Feb2022            

=------------------------------------------------------------------------------=
   JOB DONE.
=------------------------------------------------------------------------------=
Note: The following floating-point exceptions are signalling: IEEE_UNDERFLOW_FLAG IEEE_DENORMAL
Note: The following floating-point exceptions are signalling: IEEE_INVALID_FLAG IEEE_UNDERFLOW_FLAG IEEE_DENORMAL
Note: The following floating-point exceptions are signalling: IEEE_UNDERFLOW_FLAG IEEE_DENORMAL
Note: The following floating-point exceptions are signalling: IEEE_UNDERFLOW_FLAG IEEE_DENORMAL
Note: The following floating-point exceptions are signalling: IEEE_UNDERFLOW_FLAG IEEE_DENORMAL
Note: The following floating-point exceptions are signalling: IEEE_UNDERFLOW_FLAG IEEE_DENORMAL
Note: The following floating-point exceptions are signalling: IEEE_UNDERFLOW_FLAG IEEE_DENORMAL
Note: The following floating-point exceptions are signalling: IEEE_UNDERFLOW_FLAG IEEE_DENORMAL
Note: The following floating-point exceptions are signalling: IEEE_UNDERFLOW_FLAG IEEE_DENORMAL
Note: The following floating-point exceptions are signalling: IEEE_UNDERFLOW_FLAG IEEE_DENORMAL
Note: The following floating-point exceptions are signalling: IEEE_UNDERFLOW_FLAG IEEE_DENORMAL
Note: The following floating-point exceptions are signalling: IEEE_UNDERFLOW_FLAG IEEE_DENORMAL
Note: The following floating-point exceptions are signalling: IEEE_UNDERFLOW_FLAG IEEE_DENORMAL
Note: The following floating-point exceptions are signalling: IEEE_UNDERFLOW_FLAG IEEE_DENORMAL
Note: The following floating-point exceptions are signalling: IEEE_UNDERFLOW_FLAG IEEE_DENORMAL
Note: The following floating-point exceptions are signalling: IEEE_UNDERFLOW_FLAG IEEE_DENORMAL
Note: The following floating-point exceptions are signalling: IEEE_UNDERFLOW_FLAG IEEE_DENORMAL
Note: The following floating-point exceptions are signalling: IEEE_UNDERFLOW_FLAG IEEE_DENORMAL
Note: The following floating-point exceptions are signalling: IEEE_UNDERFLOW_FLAG IEEE_DENORMAL
Note: The following floating-point exceptions are signalling: IEEE_UNDERFLOW_FLAG IEEE_DENORMAL
Note: The following floating-point exceptions are signalling: IEEE_UNDERFLOW_FLAG IEEE_DENORMAL
Note: The following floating-point exceptions are signalling: IEEE_UNDERFLOW_FLAG IEEE_DENORMAL
Note: The following floating-point exceptions are signalling: IEEE_UNDERFLOW_FLAG IEEE_DENORMAL
Note: The following floating-point exceptions are signalling: IEEE_UNDERFLOW_FLAG IEEE_DENORMAL
