
     Program PWSCF v.6.7MaX starts on 10Feb2022 at 21:58:40 

     This program is part of the open-source Quantum ESPRESSO suite
     for quantum simulation of materials; please cite
         "P. Giannozzi et al., J. Phys.:Condens. Matter 21 395502 (2009);
         "P. Giannozzi et al., J. Phys.:Condens. Matter 29 465901 (2017);
          URL http://www.quantum-espresso.org", 
     in publications or presentations arising from this work. More details at
     http://www.quantum-espresso.org/quote

     Parallel version (MPI), running on    24 processors

     MPI processes distributed on     1 nodes
     R & G space division:  proc/nbgrp/npool/nimage =      24
     Reading input from /home/kevin/QE_CoCrFeMnNi/CoCrFeMnNi/Opt/binary/Opt-B1-MnNi/Mix/MD/300K_0.0001Gpa-B1-MnNi/300K_0.0001Gpa-B1-MnNi.in

     Current dimensions of program PWSCF are:
     Max number of different atomic species (ntypx) = 10
     Max number of k-points (npk) =  40000
     Max angular momentum in pseudopotentials (lmaxx) =  3

     File ./pwscf.md deleted, as requested

     Subspace diagonalization in iterative solution of the eigenvalue problem:
     a serial algorithm will be used

     Found symmetry operation: I + (  0.0000  0.5000 -0.5000)
     This is a supercell, fractional translations are disabled

     Parallelization info
     --------------------
     sticks:   dense  smooth     PW     G-vecs:    dense   smooth      PW
     Min         274      92     25                16794     3232     461
     Max         275      93     26                16797     3235     465
     Sum        6589    2209    601               403103    77605   11123



     bravais-lattice index     =            0
     lattice parameter (alat)  =       8.7604  a.u.
     unit-cell volume          =     672.3117 (a.u.)^3
     number of atoms/cell      =            8
     number of atomic types    =            2
     number of electrons       =       132.00
     number of Kohn-Sham states=           79
     kinetic-energy cutoff     =      90.0000  Ry
     charge density cutoff     =    1080.0000  Ry
     scf convergence threshold =      1.0E-08
     mixing beta               =       0.2000
     number of iterations used =            4  plain     mixing
     energy convergence thresh.=      0.0E+00
     force convergence thresh. =      0.0E+00
     press convergence thresh. =      0.0E+00
     Exchange-correlation=  SLA  PW   PBX  PBC
                           (   1   4   3   4   0   0   0)
     nstep                     =          102


     celldm(1)=   8.760392  celldm(2)=   0.000000  celldm(3)=   0.000000
     celldm(4)=   0.000000  celldm(5)=   0.000000  celldm(6)=   0.000000

     crystal axes: (cart. coord. in units of alat)
               a(1) = (   1.000000   0.000000   0.000000 )  
               a(2) = (   0.000000   1.000000   0.000000 )  
               a(3) = (   0.000000   0.000000   1.000000 )  

     reciprocal axes: (cart. coord. in units 2 pi/alat)
               b(1) = (  1.000000  0.000000  0.000000 )  
               b(2) = (  0.000000  1.000000  0.000000 )  
               b(3) = (  0.000000  0.000000  1.000000 )  


     PseudoPot. # 1 for Ni read from file:
     /opt/QEpot/SSSP_efficiency_pseudos/ni_pbe_v1.4.uspp.F.UPF
     MD5 check sum: 1ee80287db30b12d2bc1f57a5b5d6409
     Pseudo is Ultrasoft + core correction, Zval = 18.0
     Generated by new atomic code, or converted to UPF format
     Using radial grid of  865 points,  6 beta functions with: 
                l(1) =   0
                l(2) =   0
                l(3) =   1
                l(4) =   1
                l(5) =   2
                l(6) =   2
     Q(r) pseudized with 10 coefficients,  rinner =    0.980   0.980   0.980
                                                       0.980   0.980

     PseudoPot. # 2 for Mn read from file:
     /opt/QEpot/SSSP_efficiency_pseudos/mn_pbe_v1.5.uspp.F.UPF
     MD5 check sum: 82ef2b46521d7a7d9e736dc3972e4928
     Pseudo is Ultrasoft + core correction, Zval = 15.0
     Generated by new atomic code, or converted to UPF format
     Using radial grid of  859 points,  6 beta functions with: 
                l(1) =   0
                l(2) =   0
                l(3) =   1
                l(4) =   1
                l(5) =   2
                l(6) =   2
     Q(r) pseudized with  8 coefficients,  rinner =    0.950   0.950   0.950
                                                       0.950   0.950

     atomic species   valence    mass     pseudopotential
        Ni            18.00    58.69300     Ni( 1.00)
        Mn            15.00    54.93800     Mn( 1.00)

      cell mass =  34.53968 AMU 

     Starting magnetic structure 
     atomic species   magnetization
        Ni           0.000
        Mn           0.000

     No symmetry found



   Cartesian axes

     site n.     atom                  positions (alat units)
         1           Ni  tau(   1) = (   0.0000000   0.5000000   0.0000000  )
         2           Mn  tau(   2) = (   0.5000000   0.0000000   0.5000000  )
         3           Ni  tau(   3) = (   0.0000000   0.0000000   0.5000000  )
         4           Mn  tau(   4) = (   0.5000000   0.5000000   0.0000000  )
         5           Ni  tau(   5) = (   0.5000000   0.0000000   0.0000000  )
         6           Mn  tau(   6) = (   0.0000000   0.5000000   0.5000000  )
         7           Ni  tau(   7) = (   0.5000000   0.5000000   0.5000000  )
         8           Mn  tau(   8) = (   0.0000000   0.0000000   0.0000000  )

     number of k points=    63  Gaussian smearing, width (Ry)=  0.0100
                       cart. coord. in units 2pi/alat
        k(    1) = (   0.0000000   0.0000000   0.0000000), wk =   0.0080000
        k(    2) = (   0.0000000   0.0000000   0.2000000), wk =   0.0160000
        k(    3) = (   0.0000000   0.0000000   0.4000000), wk =   0.0160000
        k(    4) = (   0.0000000   0.2000000   0.0000000), wk =   0.0160000
        k(    5) = (   0.0000000   0.2000000   0.2000000), wk =   0.0160000
        k(    6) = (   0.0000000   0.2000000   0.4000000), wk =   0.0160000
        k(    7) = (   0.0000000   0.2000000  -0.4000000), wk =   0.0160000
        k(    8) = (   0.0000000   0.2000000  -0.2000000), wk =   0.0160000
        k(    9) = (   0.0000000   0.4000000   0.0000000), wk =   0.0160000
        k(   10) = (   0.0000000   0.4000000   0.2000000), wk =   0.0160000
        k(   11) = (   0.0000000   0.4000000   0.4000000), wk =   0.0160000
        k(   12) = (   0.0000000   0.4000000  -0.4000000), wk =   0.0160000
        k(   13) = (   0.0000000   0.4000000  -0.2000000), wk =   0.0160000
        k(   14) = (   0.2000000   0.0000000   0.0000000), wk =   0.0160000
        k(   15) = (   0.2000000   0.0000000   0.2000000), wk =   0.0160000
        k(   16) = (   0.2000000   0.0000000   0.4000000), wk =   0.0160000
        k(   17) = (   0.2000000   0.0000000  -0.4000000), wk =   0.0160000
        k(   18) = (   0.2000000   0.0000000  -0.2000000), wk =   0.0160000
        k(   19) = (   0.2000000   0.2000000   0.0000000), wk =   0.0160000
        k(   20) = (   0.2000000   0.2000000   0.2000000), wk =   0.0160000
        k(   21) = (   0.2000000   0.2000000   0.4000000), wk =   0.0160000
        k(   22) = (   0.2000000   0.2000000  -0.4000000), wk =   0.0160000
        k(   23) = (   0.2000000   0.2000000  -0.2000000), wk =   0.0160000
        k(   24) = (   0.2000000   0.4000000   0.0000000), wk =   0.0160000
        k(   25) = (   0.2000000   0.4000000   0.2000000), wk =   0.0160000
        k(   26) = (   0.2000000   0.4000000   0.4000000), wk =   0.0160000
        k(   27) = (   0.2000000   0.4000000  -0.4000000), wk =   0.0160000
        k(   28) = (   0.2000000   0.4000000  -0.2000000), wk =   0.0160000
        k(   29) = (   0.2000000  -0.4000000   0.0000000), wk =   0.0160000
        k(   30) = (   0.2000000  -0.4000000   0.2000000), wk =   0.0160000
        k(   31) = (   0.2000000  -0.4000000   0.4000000), wk =   0.0160000
        k(   32) = (   0.2000000  -0.4000000  -0.4000000), wk =   0.0160000
        k(   33) = (   0.2000000  -0.4000000  -0.2000000), wk =   0.0160000
        k(   34) = (   0.2000000  -0.2000000   0.0000000), wk =   0.0160000
        k(   35) = (   0.2000000  -0.2000000   0.2000000), wk =   0.0160000
        k(   36) = (   0.2000000  -0.2000000   0.4000000), wk =   0.0160000
        k(   37) = (   0.2000000  -0.2000000  -0.4000000), wk =   0.0160000
        k(   38) = (   0.2000000  -0.2000000  -0.2000000), wk =   0.0160000
        k(   39) = (   0.4000000   0.0000000   0.0000000), wk =   0.0160000
        k(   40) = (   0.4000000   0.0000000   0.2000000), wk =   0.0160000
        k(   41) = (   0.4000000   0.0000000   0.4000000), wk =   0.0160000
        k(   42) = (   0.4000000   0.0000000  -0.4000000), wk =   0.0160000
        k(   43) = (   0.4000000   0.0000000  -0.2000000), wk =   0.0160000
        k(   44) = (   0.4000000   0.2000000   0.0000000), wk =   0.0160000
        k(   45) = (   0.4000000   0.2000000   0.2000000), wk =   0.0160000
        k(   46) = (   0.4000000   0.2000000   0.4000000), wk =   0.0160000
        k(   47) = (   0.4000000   0.2000000  -0.4000000), wk =   0.0160000
        k(   48) = (   0.4000000   0.2000000  -0.2000000), wk =   0.0160000
        k(   49) = (   0.4000000   0.4000000   0.0000000), wk =   0.0160000
        k(   50) = (   0.4000000   0.4000000   0.2000000), wk =   0.0160000
        k(   51) = (   0.4000000   0.4000000   0.4000000), wk =   0.0160000
        k(   52) = (   0.4000000   0.4000000  -0.4000000), wk =   0.0160000
        k(   53) = (   0.4000000   0.4000000  -0.2000000), wk =   0.0160000
        k(   54) = (   0.4000000  -0.4000000   0.0000000), wk =   0.0160000
        k(   55) = (   0.4000000  -0.4000000   0.2000000), wk =   0.0160000
        k(   56) = (   0.4000000  -0.4000000   0.4000000), wk =   0.0160000
        k(   57) = (   0.4000000  -0.4000000  -0.4000000), wk =   0.0160000
        k(   58) = (   0.4000000  -0.4000000  -0.2000000), wk =   0.0160000
        k(   59) = (   0.4000000  -0.2000000   0.0000000), wk =   0.0160000
        k(   60) = (   0.4000000  -0.2000000   0.2000000), wk =   0.0160000
        k(   61) = (   0.4000000  -0.2000000   0.4000000), wk =   0.0160000
        k(   62) = (   0.4000000  -0.2000000  -0.4000000), wk =   0.0160000
        k(   63) = (   0.4000000  -0.2000000  -0.2000000), wk =   0.0160000

     Dense  grid:   403103 G-vectors     FFT dimensions: (  96,  96,  96)

     Smooth grid:    77605 G-vectors     FFT dimensions: (  54,  54,  54)

     Estimated max dynamical RAM per process >     137.38 MB

     Estimated total dynamical RAM >       3.22 GB

     Check: negative core charge=   -0.000015
     Generating pointlists ...
     new r_m :   0.2063 (alat units)  1.8068 (a.u.) for type    1
     new r_m :   0.2063 (alat units)  1.8068 (a.u.) for type    2

     Initial potential from superposition of free atoms

     starting charge  121.99966, renormalised to  132.00000
     Starting wfcs are  104 randomized atomic wfcs

     total cpu time spent up to now is       17.8 secs

     Self-consistent Calculation

     iteration #  1     ecut=    90.00 Ry     beta= 0.20
     CG style diagonalization
     ethr =  1.00E-02,  avg # of iterations =  3.4

     total cpu time spent up to now is       60.0 secs

     total energy              =   -2188.45110460 Ry
     estimated scf accuracy    <     161.43462012 Ry

     total magnetization       =     0.00 Bohr mag/cell
     absolute magnetization    =     0.02 Bohr mag/cell

     iteration #  2     ecut=    90.00 Ry     beta= 0.20
     CG style diagonalization
     c_bands:  1 eigenvalues not converged
     ethr =  1.00E-02,  avg # of iterations =  5.0

     total cpu time spent up to now is      117.6 secs

     total energy              =   -2215.11371290 Ry
     estimated scf accuracy    <      64.94911840 Ry

     total magnetization       =     0.03 Bohr mag/cell
     absolute magnetization    =     0.12 Bohr mag/cell

     iteration #  3     ecut=    90.00 Ry     beta= 0.20
     CG style diagonalization
     ethr =  1.00E-02,  avg # of iterations =  3.6

     total cpu time spent up to now is      160.0 secs

     total energy              =   -2211.53930395 Ry
     estimated scf accuracy    <      13.72498376 Ry

     total magnetization       =    -0.03 Bohr mag/cell
     absolute magnetization    =     0.11 Bohr mag/cell

     iteration #  4     ecut=    90.00 Ry     beta= 0.20
     CG style diagonalization
     ethr =  1.00E-02,  avg # of iterations =  3.8

     total cpu time spent up to now is      204.2 secs

     total energy              =   -2206.36067271 Ry
     estimated scf accuracy    <     125.41805032 Ry

     total magnetization       =    -0.04 Bohr mag/cell
     absolute magnetization    =     0.12 Bohr mag/cell

     iteration #  5     ecut=    90.00 Ry     beta= 0.20
     CG style diagonalization
     ethr =  1.00E-02,  avg # of iterations =  3.7

     total cpu time spent up to now is      247.3 secs

     total energy              =   -2215.75773300 Ry
     estimated scf accuracy    <       9.83973485 Ry

     total magnetization       =     0.03 Bohr mag/cell
     absolute magnetization    =     0.14 Bohr mag/cell

     iteration #  6     ecut=    90.00 Ry     beta= 0.20
     CG style diagonalization
     ethr =  7.45E-03,  avg # of iterations =  3.2

     total cpu time spent up to now is      285.7 secs

     total energy              =   -2216.74521811 Ry
     estimated scf accuracy    <      11.36487334 Ry

     total magnetization       =    -0.00 Bohr mag/cell
     absolute magnetization    =     0.07 Bohr mag/cell

     iteration #  7     ecut=    90.00 Ry     beta= 0.20
     CG style diagonalization
     ethr =  7.45E-03,  avg # of iterations =  3.0

     total cpu time spent up to now is      321.7 secs

     total energy              =   -2217.27958251 Ry
     estimated scf accuracy    <       0.62816893 Ry

     total magnetization       =    -0.01 Bohr mag/cell
     absolute magnetization    =     0.08 Bohr mag/cell

     iteration #  8     ecut=    90.00 Ry     beta= 0.20
     CG style diagonalization
     ethr =  4.76E-04,  avg # of iterations =  3.2

     total cpu time spent up to now is      360.1 secs

     total energy              =   -2217.34402477 Ry
     estimated scf accuracy    <       1.22611754 Ry

     total magnetization       =    -0.02 Bohr mag/cell
     absolute magnetization    =     0.06 Bohr mag/cell

     iteration #  9     ecut=    90.00 Ry     beta= 0.20
     CG style diagonalization
     ethr =  4.76E-04,  avg # of iterations =  3.0

     total cpu time spent up to now is      396.4 secs

     total energy              =   -2217.32370114 Ry
     estimated scf accuracy    <       0.83045097 Ry

     total magnetization       =    -0.00 Bohr mag/cell
     absolute magnetization    =     0.04 Bohr mag/cell

     iteration # 10     ecut=    90.00 Ry     beta= 0.20
     CG style diagonalization
     ethr =  4.76E-04,  avg # of iterations =  3.0

     total cpu time spent up to now is      432.5 secs

     total energy              =   -2217.29837716 Ry
     estimated scf accuracy    <       0.45796864 Ry

     total magnetization       =    -0.01 Bohr mag/cell
     absolute magnetization    =     0.04 Bohr mag/cell

     iteration # 11     ecut=    90.00 Ry     beta= 0.20
     CG style diagonalization
     ethr =  3.47E-04,  avg # of iterations =  3.0

     total cpu time spent up to now is      468.7 secs

     total energy              =   -2217.31280069 Ry
     estimated scf accuracy    <       0.01495918 Ry

     total magnetization       =    -0.01 Bohr mag/cell
     absolute magnetization    =     0.04 Bohr mag/cell

     iteration # 12     ecut=    90.00 Ry     beta= 0.20
     CG style diagonalization
     c_bands:  2 eigenvalues not converged
     c_bands:  1 eigenvalues not converged
     c_bands:  1 eigenvalues not converged
     c_bands:  1 eigenvalues not converged
     c_bands:  1 eigenvalues not converged
     c_bands:  2 eigenvalues not converged
     ethr =  1.13E-05,  avg # of iterations =  3.5

     total cpu time spent up to now is      509.9 secs

     total energy              =   -2217.31361280 Ry
     estimated scf accuracy    <       0.03805727 Ry

     total magnetization       =    -0.01 Bohr mag/cell
     absolute magnetization    =     0.05 Bohr mag/cell

     iteration # 13     ecut=    90.00 Ry     beta= 0.20
     CG style diagonalization
     c_bands:  1 eigenvalues not converged
     ethr =  1.13E-05,  avg # of iterations =  3.0

     total cpu time spent up to now is      546.4 secs

     total energy              =   -2217.31478432 Ry
     estimated scf accuracy    <       0.04780447 Ry

     total magnetization       =    -0.01 Bohr mag/cell
     absolute magnetization    =     0.05 Bohr mag/cell

     iteration # 14     ecut=    90.00 Ry     beta= 0.20
     CG style diagonalization
     c_bands:  1 eigenvalues not converged
     ethr =  1.13E-05,  avg # of iterations =  3.0

     total cpu time spent up to now is      582.5 secs

     total energy              =   -2217.31486815 Ry
     estimated scf accuracy    <       0.01656325 Ry

     total magnetization       =    -0.01 Bohr mag/cell
     absolute magnetization    =     0.05 Bohr mag/cell

     iteration # 15     ecut=    90.00 Ry     beta= 0.20
     CG style diagonalization
     c_bands:  1 eigenvalues not converged
     ethr =  1.13E-05,  avg # of iterations =  3.0

     total cpu time spent up to now is      618.7 secs

     total energy              =   -2217.31283823 Ry
     estimated scf accuracy    <       0.18193296 Ry

     total magnetization       =    -0.01 Bohr mag/cell
     absolute magnetization    =     0.06 Bohr mag/cell

     iteration # 16     ecut=    90.00 Ry     beta= 0.20
     CG style diagonalization
     ethr =  1.13E-05,  avg # of iterations =  3.0

     total cpu time spent up to now is      654.8 secs

     total energy              =   -2217.31502499 Ry
     estimated scf accuracy    <       0.01240828 Ry

     total magnetization       =    -0.01 Bohr mag/cell
     absolute magnetization    =     0.07 Bohr mag/cell

     iteration # 17     ecut=    90.00 Ry     beta= 0.20
     CG style diagonalization
     ethr =  9.40E-06,  avg # of iterations =  3.0

     total cpu time spent up to now is      690.8 secs

     total energy              =   -2217.31497490 Ry
     estimated scf accuracy    <       0.02191176 Ry

     total magnetization       =    -0.01 Bohr mag/cell
     absolute magnetization    =     0.07 Bohr mag/cell

     iteration # 18     ecut=    90.00 Ry     beta= 0.20
     CG style diagonalization
     ethr =  9.40E-06,  avg # of iterations =  3.0

     total cpu time spent up to now is      726.8 secs

     total energy              =   -2217.31496696 Ry
     estimated scf accuracy    <       0.02224326 Ry

     total magnetization       =    -0.02 Bohr mag/cell
     absolute magnetization    =     0.07 Bohr mag/cell

     iteration # 19     ecut=    90.00 Ry     beta= 0.20
     CG style diagonalization
     ethr =  9.40E-06,  avg # of iterations =  3.0

     total cpu time spent up to now is      762.8 secs

     total energy              =   -2217.31531914 Ry
     estimated scf accuracy    <       0.00768196 Ry

     total magnetization       =    -0.02 Bohr mag/cell
     absolute magnetization    =     0.09 Bohr mag/cell

     iteration # 20     ecut=    90.00 Ry     beta= 0.20
     CG style diagonalization
     c_bands:  1 eigenvalues not converged
     c_bands:  1 eigenvalues not converged
     c_bands:  1 eigenvalues not converged
     c_bands:  1 eigenvalues not converged
     ethr =  5.82E-06,  avg # of iterations =  3.0

     total cpu time spent up to now is      798.9 secs

     total energy              =   -2217.31530588 Ry
     estimated scf accuracy    <       0.01810871 Ry

     total magnetization       =    -0.02 Bohr mag/cell
     absolute magnetization    =     0.09 Bohr mag/cell

     iteration # 21     ecut=    90.00 Ry     beta= 0.20
     CG style diagonalization
     ethr =  5.82E-06,  avg # of iterations =  3.0

     total cpu time spent up to now is      834.9 secs

     total energy              =   -2217.31530986 Ry
     estimated scf accuracy    <       0.00296648 Ry

     total magnetization       =    -0.02 Bohr mag/cell
     absolute magnetization    =     0.10 Bohr mag/cell

     iteration # 22     ecut=    90.00 Ry     beta= 0.20
     CG style diagonalization
     c_bands:  1 eigenvalues not converged
     c_bands:  1 eigenvalues not converged
     c_bands:  1 eigenvalues not converged
     c_bands:  1 eigenvalues not converged
     c_bands:  1 eigenvalues not converged
     c_bands:  1 eigenvalues not converged
     c_bands:  1 eigenvalues not converged
     c_bands:  1 eigenvalues not converged
     c_bands:  1 eigenvalues not converged
     c_bands:  1 eigenvalues not converged
     c_bands:  1 eigenvalues not converged
     ethr =  2.25E-06,  avg # of iterations =  3.0

     total cpu time spent up to now is      871.3 secs

     total energy              =   -2217.31421996 Ry
     estimated scf accuracy    <       0.09865898 Ry

     total magnetization       =    -0.02 Bohr mag/cell
     absolute magnetization    =     0.11 Bohr mag/cell

     iteration # 23     ecut=    90.00 Ry     beta= 0.20
     CG style diagonalization
     c_bands:  1 eigenvalues not converged
     ethr =  2.25E-06,  avg # of iterations =  3.0

     total cpu time spent up to now is      907.4 secs

     total energy              =   -2217.31550882 Ry
     estimated scf accuracy    <       0.00278790 Ry

     total magnetization       =    -0.02 Bohr mag/cell
     absolute magnetization    =     0.12 Bohr mag/cell

     iteration # 24     ecut=    90.00 Ry     beta= 0.20
     CG style diagonalization
     c_bands:  1 eigenvalues not converged
     ethr =  2.11E-06,  avg # of iterations =  3.0

     total cpu time spent up to now is      943.2 secs

     total energy              =   -2217.31551714 Ry
     estimated scf accuracy    <       0.00416417 Ry

     total magnetization       =    -0.03 Bohr mag/cell
     absolute magnetization    =     0.13 Bohr mag/cell

     iteration # 25     ecut=    90.00 Ry     beta= 0.20
     CG style diagonalization
     c_bands:  1 eigenvalues not converged
     ethr =  2.11E-06,  avg # of iterations =  3.0

     total cpu time spent up to now is      979.0 secs

     total energy              =   -2217.31556796 Ry
     estimated scf accuracy    <       0.00137272 Ry

     total magnetization       =    -0.03 Bohr mag/cell
     absolute magnetization    =     0.15 Bohr mag/cell

     iteration # 26     ecut=    90.00 Ry     beta= 0.20
     CG style diagonalization
     c_bands:  1 eigenvalues not converged
     ethr =  1.04E-06,  avg # of iterations =  3.0

     total cpu time spent up to now is     1014.8 secs

     total energy              =   -2217.31557614 Ry
     estimated scf accuracy    <       0.00176625 Ry

     total magnetization       =    -0.04 Bohr mag/cell
     absolute magnetization    =     0.17 Bohr mag/cell

     iteration # 27     ecut=    90.00 Ry     beta= 0.20
     CG style diagonalization
     c_bands:  1 eigenvalues not converged
     c_bands:  1 eigenvalues not converged
     ethr =  1.04E-06,  avg # of iterations =  3.0

     total cpu time spent up to now is     1050.6 secs

     total energy              =   -2217.31559584 Ry
     estimated scf accuracy    <       0.00210736 Ry

     total magnetization       =    -0.04 Bohr mag/cell
     absolute magnetization    =     0.18 Bohr mag/cell

     iteration # 28     ecut=    90.00 Ry     beta= 0.20
     CG style diagonalization
     ethr =  1.04E-06,  avg # of iterations =  3.0

     total cpu time spent up to now is     1086.3 secs

     total energy              =   -2217.31562135 Ry
     estimated scf accuracy    <       0.00070286 Ry

     total magnetization       =    -0.04 Bohr mag/cell
     absolute magnetization    =     0.20 Bohr mag/cell

     iteration # 29     ecut=    90.00 Ry     beta= 0.20
     CG style diagonalization
     ethr =  5.32E-07,  avg # of iterations =  3.0

     total cpu time spent up to now is     1122.1 secs

     total energy              =   -2217.31559429 Ry
     estimated scf accuracy    <       0.00457797 Ry

     total magnetization       =    -0.05 Bohr mag/cell
     absolute magnetization    =     0.23 Bohr mag/cell

     iteration # 30     ecut=    90.00 Ry     beta= 0.20
     CG style diagonalization
     ethr =  5.32E-07,  avg # of iterations =  3.0

     total cpu time spent up to now is     1157.6 secs

     total energy              =   -2217.31565039 Ry
     estimated scf accuracy    <       0.00162719 Ry

     total magnetization       =    -0.05 Bohr mag/cell
     absolute magnetization    =     0.25 Bohr mag/cell

     iteration # 31     ecut=    90.00 Ry     beta= 0.20
     CG style diagonalization
     ethr =  5.32E-07,  avg # of iterations =  3.0

     total cpu time spent up to now is     1193.1 secs

     total energy              =   -2217.31568652 Ry
     estimated scf accuracy    <       0.00038164 Ry

     total magnetization       =    -0.06 Bohr mag/cell
     absolute magnetization    =     0.26 Bohr mag/cell

     iteration # 32     ecut=    90.00 Ry     beta= 0.20
     CG style diagonalization
     ethr =  2.89E-07,  avg # of iterations =  3.0

     total cpu time spent up to now is     1228.6 secs

     total energy              =   -2217.31569625 Ry
     estimated scf accuracy    <       0.00069323 Ry

     total magnetization       =    -0.06 Bohr mag/cell
     absolute magnetization    =     0.29 Bohr mag/cell

     iteration # 33     ecut=    90.00 Ry     beta= 0.20
     CG style diagonalization
     ethr =  2.89E-07,  avg # of iterations =  3.0

     total cpu time spent up to now is     1264.1 secs

     total energy              =   -2217.31571909 Ry
     estimated scf accuracy    <       0.00146796 Ry

     total magnetization       =    -0.07 Bohr mag/cell
     absolute magnetization    =     0.31 Bohr mag/cell

     iteration # 34     ecut=    90.00 Ry     beta= 0.20
     CG style diagonalization
     ethr =  2.89E-07,  avg # of iterations =  3.0

     total cpu time spent up to now is     1299.6 secs

     total energy              =   -2217.31573509 Ry
     estimated scf accuracy    <       0.00198659 Ry

     total magnetization       =    -0.08 Bohr mag/cell
     absolute magnetization    =     0.36 Bohr mag/cell

     iteration # 35     ecut=    90.00 Ry     beta= 0.20
     CG style diagonalization
     ethr =  2.89E-07,  avg # of iterations =  3.0

     total cpu time spent up to now is     1335.1 secs

     total energy              =   -2217.31575149 Ry
     estimated scf accuracy    <       0.00055088 Ry

     total magnetization       =    -0.08 Bohr mag/cell
     absolute magnetization    =     0.36 Bohr mag/cell

     iteration # 36     ecut=    90.00 Ry     beta= 0.20
     CG style diagonalization
     c_bands:  1 eigenvalues not converged
     ethr =  2.89E-07,  avg # of iterations =  3.0

     total cpu time spent up to now is     1370.6 secs

     total energy              =   -2217.31576010 Ry
     estimated scf accuracy    <       0.00222350 Ry

     total magnetization       =    -0.08 Bohr mag/cell
     absolute magnetization    =     0.36 Bohr mag/cell

     iteration # 37     ecut=    90.00 Ry     beta= 0.20
     CG style diagonalization
     c_bands:  1 eigenvalues not converged
     ethr =  2.89E-07,  avg # of iterations =  3.0

     total cpu time spent up to now is     1406.1 secs

     total energy              =   -2217.31582475 Ry
     estimated scf accuracy    <       0.00178022 Ry

     total magnetization       =    -0.09 Bohr mag/cell
     absolute magnetization    =     0.42 Bohr mag/cell

     iteration # 38     ecut=    90.00 Ry     beta= 0.20
     CG style diagonalization
     c_bands:  1 eigenvalues not converged
     c_bands:  1 eigenvalues not converged
     c_bands:  1 eigenvalues not converged
     ethr =  2.89E-07,  avg # of iterations =  3.0

     total cpu time spent up to now is     1441.6 secs

     total energy              =   -2217.31585621 Ry
     estimated scf accuracy    <       0.00338937 Ry

     total magnetization       =    -0.10 Bohr mag/cell
     absolute magnetization    =     0.47 Bohr mag/cell

     iteration # 39     ecut=    90.00 Ry     beta= 0.20
     CG style diagonalization
     ethr =  2.89E-07,  avg # of iterations =  3.0

     total cpu time spent up to now is     1477.1 secs

     total energy              =   -2217.31590015 Ry
     estimated scf accuracy    <       0.00396149 Ry

     total magnetization       =    -0.11 Bohr mag/cell
     absolute magnetization    =     0.49 Bohr mag/cell

     iteration # 40     ecut=    90.00 Ry     beta= 0.20
     CG style diagonalization
     ethr =  2.89E-07,  avg # of iterations =  3.0

     total cpu time spent up to now is     1512.4 secs

     total energy              =   -2217.31598779 Ry
     estimated scf accuracy    <       0.00114248 Ry

     total magnetization       =    -0.11 Bohr mag/cell
     absolute magnetization    =     0.51 Bohr mag/cell

     iteration # 41     ecut=    90.00 Ry     beta= 0.20
     CG style diagonalization
     c_bands:  1 eigenvalues not converged
     ethr =  2.89E-07,  avg # of iterations =  3.0

     total cpu time spent up to now is     1547.9 secs

     total energy              =   -2217.31591518 Ry
     estimated scf accuracy    <       0.00868095 Ry

     total magnetization       =    -0.13 Bohr mag/cell
     absolute magnetization    =     0.58 Bohr mag/cell

     iteration # 42     ecut=    90.00 Ry     beta= 0.20
     CG style diagonalization
     c_bands:  1 eigenvalues not converged
     ethr =  2.89E-07,  avg # of iterations =  3.1

     total cpu time spent up to now is     1584.5 secs

     total energy              =   -2217.31597064 Ry
     estimated scf accuracy    <       0.02003347 Ry

     total magnetization       =    -0.14 Bohr mag/cell
     absolute magnetization    =     0.63 Bohr mag/cell

     iteration # 43     ecut=    90.00 Ry     beta= 0.20
     CG style diagonalization
     ethr =  2.89E-07,  avg # of iterations =  3.0

     total cpu time spent up to now is     1620.0 secs

     total energy              =   -2217.31621974 Ry
     estimated scf accuracy    <       0.00242959 Ry

     total magnetization       =    -0.16 Bohr mag/cell
     absolute magnetization    =     0.70 Bohr mag/cell

     iteration # 44     ecut=    90.00 Ry     beta= 0.20
     CG style diagonalization
     c_bands:  1 eigenvalues not converged
     ethr =  2.89E-07,  avg # of iterations =  3.0

     total cpu time spent up to now is     1655.4 secs

     total energy              =   -2217.31583583 Ry
     estimated scf accuracy    <       0.00648582 Ry

     total magnetization       =    -0.15 Bohr mag/cell
     absolute magnetization    =     0.67 Bohr mag/cell

     iteration # 45     ecut=    90.00 Ry     beta= 0.20
     CG style diagonalization
     ethr =  2.89E-07,  avg # of iterations =  3.1

     total cpu time spent up to now is     1691.3 secs

     total energy              =   -2217.31587713 Ry
     estimated scf accuracy    <       0.02483631 Ry

     total magnetization       =    -0.12 Bohr mag/cell
     absolute magnetization    =     0.53 Bohr mag/cell

     iteration # 46     ecut=    90.00 Ry     beta= 0.20
     CG style diagonalization
     c_bands:  1 eigenvalues not converged
     ethr =  2.89E-07,  avg # of iterations =  3.2

     total cpu time spent up to now is     1728.7 secs

     total energy              =   -2217.31682565 Ry
     estimated scf accuracy    <       0.01415232 Ry

     total magnetization       =    -0.22 Bohr mag/cell
     absolute magnetization    =     0.97 Bohr mag/cell

     iteration # 47     ecut=    90.00 Ry     beta= 0.20
     CG style diagonalization
     ethr =  2.89E-07,  avg # of iterations =  3.0

     total cpu time spent up to now is     1764.0 secs

     total energy              =   -2217.31677065 Ry
     estimated scf accuracy    <       0.00603611 Ry

     total magnetization       =    -0.22 Bohr mag/cell
     absolute magnetization    =     0.97 Bohr mag/cell

     iteration # 48     ecut=    90.00 Ry     beta= 0.20
     CG style diagonalization
     ethr =  2.89E-07,  avg # of iterations =  3.0

     total cpu time spent up to now is     1799.3 secs

     total energy              =   -2217.31685947 Ry
     estimated scf accuracy    <       0.00945470 Ry

     total magnetization       =    -0.20 Bohr mag/cell
     absolute magnetization    =     0.91 Bohr mag/cell

     iteration # 49     ecut=    90.00 Ry     beta= 0.20
     CG style diagonalization
     ethr =  2.89E-07,  avg # of iterations =  3.3

     total cpu time spent up to now is     1837.3 secs

     total energy              =   -2217.31709464 Ry
     estimated scf accuracy    <       0.00826723 Ry

     total magnetization       =    -0.23 Bohr mag/cell
     absolute magnetization    =     1.03 Bohr mag/cell

     iteration # 50     ecut=    90.00 Ry     beta= 0.20
     CG style diagonalization
     ethr =  2.89E-07,  avg # of iterations =  3.4

     total cpu time spent up to now is     1876.9 secs

     total energy              =   -2217.31664927 Ry
     estimated scf accuracy    <       0.05141255 Ry

     total magnetization       =    -0.26 Bohr mag/cell
     absolute magnetization    =     1.14 Bohr mag/cell

     iteration # 51     ecut=    90.00 Ry     beta= 0.20
     CG style diagonalization
     c_bands:  1 eigenvalues not converged
     ethr =  2.89E-07,  avg # of iterations =  3.8

     total cpu time spent up to now is     1920.5 secs

     total energy              =   -2217.31514525 Ry
     estimated scf accuracy    <       0.21978719 Ry

     total magnetization       =    -0.29 Bohr mag/cell
     absolute magnetization    =     1.27 Bohr mag/cell

     iteration # 52     ecut=    90.00 Ry     beta= 0.20
     CG style diagonalization
     c_bands:  1 eigenvalues not converged
     ethr =  2.89E-07,  avg # of iterations =  3.9

     total cpu time spent up to now is     1965.4 secs

     total energy              =   -2217.31719523 Ry
     estimated scf accuracy    <       0.07491956 Ry

     total magnetization       =    -0.32 Bohr mag/cell
     absolute magnetization    =     1.33 Bohr mag/cell

     iteration # 53     ecut=    90.00 Ry     beta= 0.20
     CG style diagonalization
     ethr =  2.89E-07,  avg # of iterations =  3.6

     total cpu time spent up to now is     2006.8 secs

     total energy              =   -2217.31791296 Ry
     estimated scf accuracy    <       0.01922656 Ry

     total magnetization       =    -0.32 Bohr mag/cell
     absolute magnetization    =     1.35 Bohr mag/cell

     iteration # 54     ecut=    90.00 Ry     beta= 0.20
     CG style diagonalization
     ethr =  2.89E-07,  avg # of iterations =  3.8

     total cpu time spent up to now is     2049.8 secs

     total energy              =   -2217.31812291 Ry
     estimated scf accuracy    <       0.02652064 Ry

     total magnetization       =    -0.33 Bohr mag/cell
     absolute magnetization    =     1.45 Bohr mag/cell

     iteration # 55     ecut=    90.00 Ry     beta= 0.20
     CG style diagonalization
     ethr =  2.89E-07,  avg # of iterations =  4.2

     total cpu time spent up to now is     2097.6 secs

     total energy              =   -2217.31733755 Ry
     estimated scf accuracy    <       0.10276403 Ry

     total magnetization       =    -0.36 Bohr mag/cell
     absolute magnetization    =     1.67 Bohr mag/cell

     iteration # 56     ecut=    90.00 Ry     beta= 0.20
     CG style diagonalization
     c_bands:  1 eigenvalues not converged
     ethr =  2.89E-07,  avg # of iterations =  4.3

     total cpu time spent up to now is     2145.7 secs

     total energy              =   -2217.31728474 Ry
     estimated scf accuracy    <       0.23533919 Ry

     total magnetization       =    -0.42 Bohr mag/cell
     absolute magnetization    =     1.82 Bohr mag/cell

     iteration # 57     ecut=    90.00 Ry     beta= 0.20
     CG style diagonalization
     ethr =  2.89E-07,  avg # of iterations =  3.9

     total cpu time spent up to now is     2190.5 secs

     total energy              =   -2217.31981350 Ry
     estimated scf accuracy    <       0.08736389 Ry

     total magnetization       =    -0.44 Bohr mag/cell
     absolute magnetization    =     1.89 Bohr mag/cell

     iteration # 58     ecut=    90.00 Ry     beta= 0.20
     CG style diagonalization
     c_bands:  1 eigenvalues not converged
     ethr =  2.89E-07,  avg # of iterations =  3.7

     total cpu time spent up to now is     2232.8 secs

     total energy              =   -2217.31997662 Ry
     estimated scf accuracy    <       0.06358989 Ry

     total magnetization       =    -0.46 Bohr mag/cell
     absolute magnetization    =     1.91 Bohr mag/cell

     iteration # 59     ecut=    90.00 Ry     beta= 0.20
     CG style diagonalization
     c_bands:  1 eigenvalues not converged
     ethr =  2.89E-07,  avg # of iterations =  4.4

     total cpu time spent up to now is     2282.6 secs

     total energy              =   -2217.31881514 Ry
     estimated scf accuracy    <       0.16913772 Ry

     total magnetization       =    -0.54 Bohr mag/cell
     absolute magnetization    =     2.12 Bohr mag/cell

     iteration # 60     ecut=    90.00 Ry     beta= 0.20
     CG style diagonalization
     c_bands:  1 eigenvalues not converged
     c_bands:  1 eigenvalues not converged
     c_bands:  1 eigenvalues not converged
     ethr =  2.89E-07,  avg # of iterations =  4.7

     total cpu time spent up to now is     2334.8 secs

     total energy              =   -2217.32181402 Ry
     estimated scf accuracy    <       0.12416175 Ry

     total magnetization       =    -0.54 Bohr mag/cell
     absolute magnetization    =     2.39 Bohr mag/cell

     iteration # 61     ecut=    90.00 Ry     beta= 0.20
     CG style diagonalization
     c_bands:  1 eigenvalues not converged
     ethr =  2.89E-07,  avg # of iterations =  4.5

     total cpu time spent up to now is     2385.2 secs

     total energy              =   -2217.32215146 Ry
     estimated scf accuracy    <       0.22046760 Ry

     total magnetization       =    -0.52 Bohr mag/cell
     absolute magnetization    =     2.49 Bohr mag/cell

     iteration # 62     ecut=    90.00 Ry     beta= 0.20
     CG style diagonalization
     ethr =  2.89E-07,  avg # of iterations =  4.1

     total cpu time spent up to now is     2432.0 secs

     total energy              =   -2217.32364407 Ry
     estimated scf accuracy    <       0.11631879 Ry

     total magnetization       =    -0.61 Bohr mag/cell
     absolute magnetization    =     2.66 Bohr mag/cell

     iteration # 63     ecut=    90.00 Ry     beta= 0.20
     CG style diagonalization
     ethr =  2.89E-07,  avg # of iterations =  4.5

     total cpu time spent up to now is     2482.6 secs

     total energy              =   -2217.31494768 Ry
     estimated scf accuracy    <       0.66612521 Ry

     total magnetization       =    -0.57 Bohr mag/cell
     absolute magnetization    =     2.67 Bohr mag/cell

     iteration # 64     ecut=    90.00 Ry     beta= 0.20
     CG style diagonalization
     c_bands:  1 eigenvalues not converged
     c_bands:  1 eigenvalues not converged
     c_bands:  1 eigenvalues not converged
     c_bands:  1 eigenvalues not converged
     c_bands:  1 eigenvalues not converged
     ethr =  2.89E-07,  avg # of iterations =  5.4

     total cpu time spent up to now is     2542.0 secs

     total energy              =   -2217.31336208 Ry
     estimated scf accuracy    <       0.94041972 Ry

     total magnetization       =    -0.85 Bohr mag/cell
     absolute magnetization    =     2.86 Bohr mag/cell

     iteration # 65     ecut=    90.00 Ry     beta= 0.20
     CG style diagonalization
     ethr =  2.89E-07,  avg # of iterations =  5.3

     total cpu time spent up to now is     2600.1 secs

     total energy              =   -2217.32780969 Ry
     estimated scf accuracy    <       0.25187832 Ry

     total magnetization       =    -0.94 Bohr mag/cell
     absolute magnetization    =     3.23 Bohr mag/cell

     iteration # 66     ecut=    90.00 Ry     beta= 0.20
     CG style diagonalization
     c_bands:  1 eigenvalues not converged
     ethr =  2.89E-07,  avg # of iterations =  4.6

     total cpu time spent up to now is     2651.1 secs

     total energy              =   -2217.33325278 Ry
     estimated scf accuracy    <       0.06020597 Ry

     total magnetization       =    -0.87 Bohr mag/cell
     absolute magnetization    =     3.44 Bohr mag/cell

     iteration # 67     ecut=    90.00 Ry     beta= 0.20
     CG style diagonalization
     c_bands:  1 eigenvalues not converged
     ethr =  2.89E-07,  avg # of iterations =  4.6

     total cpu time spent up to now is     2702.6 secs

     total energy              =   -2217.32462200 Ry
     estimated scf accuracy    <       0.40793647 Ry

     total magnetization       =    -0.82 Bohr mag/cell
     absolute magnetization    =     3.46 Bohr mag/cell

     iteration # 68     ecut=    90.00 Ry     beta= 0.20
     CG style diagonalization
     c_bands:  1 eigenvalues not converged
     c_bands:  1 eigenvalues not converged
     c_bands:  1 eigenvalues not converged
     c_bands:  1 eigenvalues not converged
     c_bands:  1 eigenvalues not converged
     ethr =  2.89E-07,  avg # of iterations =  5.4

     total cpu time spent up to now is     2762.2 secs

     total energy              =   -2217.31750312 Ry
     estimated scf accuracy    <       1.22204716 Ry

     total magnetization       =    -1.02 Bohr mag/cell
     absolute magnetization    =     3.87 Bohr mag/cell

     iteration # 69     ecut=    90.00 Ry     beta= 0.20
     CG style diagonalization
     c_bands:  1 eigenvalues not converged
     c_bands:  1 eigenvalues not converged
     c_bands:  1 eigenvalues not converged
     c_bands:  1 eigenvalues not converged
     c_bands:  1 eigenvalues not converged
     ethr =  2.89E-07,  avg # of iterations =  5.4

     total cpu time spent up to now is     2821.2 secs

     total energy              =   -2217.32970578 Ry
     estimated scf accuracy    <       0.89867094 Ry

     total magnetization       =    -0.89 Bohr mag/cell
     absolute magnetization    =     4.01 Bohr mag/cell

     iteration # 70     ecut=    90.00 Ry     beta= 0.20
     CG style diagonalization
     c_bands:  1 eigenvalues not converged
     ethr =  2.89E-07,  avg # of iterations =  4.9

     total cpu time spent up to now is     2875.9 secs

     total energy              =   -2217.34311736 Ry
     estimated scf accuracy    <       0.19740990 Ry

     total magnetization       =    -1.17 Bohr mag/cell
     absolute magnetization    =     4.25 Bohr mag/cell

     iteration # 71     ecut=    90.00 Ry     beta= 0.20
     CG style diagonalization
     ethr =  2.89E-07,  avg # of iterations =  4.5

     total cpu time spent up to now is     2926.2 secs

     total energy              =   -2217.34661144 Ry
     estimated scf accuracy    <       0.11763246 Ry

     total magnetization       =    -1.29 Bohr mag/cell
     absolute magnetization    =     4.41 Bohr mag/cell

     iteration # 72     ecut=    90.00 Ry     beta= 0.20
     CG style diagonalization
     c_bands:  1 eigenvalues not converged
     ethr =  2.89E-07,  avg # of iterations =  4.9

     total cpu time spent up to now is     2980.5 secs

     total energy              =   -2217.34346948 Ry
     estimated scf accuracy    <       0.30822462 Ry

     total magnetization       =    -1.22 Bohr mag/cell
     absolute magnetization    =     4.84 Bohr mag/cell

     iteration # 73     ecut=    90.00 Ry     beta= 0.20
     CG style diagonalization
     c_bands:  1 eigenvalues not converged
     c_bands:  1 eigenvalues not converged
     c_bands:  1 eigenvalues not converged
     c_bands:  1 eigenvalues not converged
     c_bands:  1 eigenvalues not converged
     c_bands:  1 eigenvalues not converged
     ethr =  2.89E-07,  avg # of iterations =  5.5

     total cpu time spent up to now is     3041.5 secs

     total energy              =   -2217.32814763 Ry
     estimated scf accuracy    <       1.44209053 Ry

     total magnetization       =    -0.97 Bohr mag/cell
     absolute magnetization    =     4.69 Bohr mag/cell

     iteration # 74     ecut=    90.00 Ry     beta= 0.20
     CG style diagonalization
     c_bands:  1 eigenvalues not converged
     ethr =  2.89E-07,  avg # of iterations =  5.4

     total cpu time spent up to now is     3100.8 secs

     total energy              =   -2217.35915638 Ry
     estimated scf accuracy    <       0.18415141 Ry

     total magnetization       =    -1.45 Bohr mag/cell
     absolute magnetization    =     5.27 Bohr mag/cell

     iteration # 75     ecut=    90.00 Ry     beta= 0.20
     CG style diagonalization
     ethr =  2.89E-07,  avg # of iterations =  4.2

     total cpu time spent up to now is     3148.6 secs

     total energy              =   -2217.35867362 Ry
     estimated scf accuracy    <       0.30433460 Ry

     total magnetization       =    -1.39 Bohr mag/cell
     absolute magnetization    =     5.23 Bohr mag/cell

     iteration # 76     ecut=    90.00 Ry     beta= 0.20
     CG style diagonalization
     ethr =  2.89E-07,  avg # of iterations =  4.8

     total cpu time spent up to now is     3201.8 secs

     total energy              =   -2217.36347687 Ry
     estimated scf accuracy    <       0.21211825 Ry

     total magnetization       =    -1.53 Bohr mag/cell
     absolute magnetization    =     5.45 Bohr mag/cell

     iteration # 77     ecut=    90.00 Ry     beta= 0.20
     CG style diagonalization
     c_bands:  1 eigenvalues not converged
     c_bands:  1 eigenvalues not converged
     c_bands:  1 eigenvalues not converged
     c_bands:  1 eigenvalues not converged
     c_bands:  1 eigenvalues not converged
     ethr =  2.89E-07,  avg # of iterations =  5.7

     total cpu time spent up to now is     3264.4 secs

     total energy              =   -2217.35050636 Ry
     estimated scf accuracy    <       1.07747867 Ry

     total magnetization       =    -2.18 Bohr mag/cell
     absolute magnetization    =     5.80 Bohr mag/cell

     iteration # 78     ecut=    90.00 Ry     beta= 0.20
     CG style diagonalization
     c_bands:  1 eigenvalues not converged
     c_bands:  1 eigenvalues not converged
     c_bands:  1 eigenvalues not converged
     ethr =  2.89E-07,  avg # of iterations =  5.3

     total cpu time spent up to now is     3323.0 secs

     total energy              =   -2217.37790700 Ry
     estimated scf accuracy    <       0.09761091 Ry

     total magnetization       =    -1.86 Bohr mag/cell
     absolute magnetization    =     6.13 Bohr mag/cell

     iteration # 79     ecut=    90.00 Ry     beta= 0.20
     CG style diagonalization
     c_bands:  1 eigenvalues not converged
     c_bands:  1 eigenvalues not converged
     c_bands:  1 eigenvalues not converged
     ethr =  2.89E-07,  avg # of iterations =  4.8

     total cpu time spent up to now is     3376.1 secs

     total energy              =   -2217.37626698 Ry
     estimated scf accuracy    <       0.41446810 Ry

     total magnetization       =    -1.78 Bohr mag/cell
     absolute magnetization    =     6.14 Bohr mag/cell

     iteration # 80     ecut=    90.00 Ry     beta= 0.20
     CG style diagonalization
     ethr =  2.89E-07,  avg # of iterations =  5.0

     total cpu time spent up to now is     3431.9 secs

     total energy              =   -2217.38182498 Ry
     estimated scf accuracy    <       0.39719073 Ry

     total magnetization       =    -2.12 Bohr mag/cell
     absolute magnetization    =     6.57 Bohr mag/cell

     iteration # 81     ecut=    90.00 Ry     beta= 0.20
     CG style diagonalization
     c_bands:  1 eigenvalues not converged
     ethr =  2.89E-07,  avg # of iterations =  4.8

     total cpu time spent up to now is     3485.2 secs

     total energy              =   -2217.38908254 Ry
     estimated scf accuracy    <       0.29145652 Ry

     total magnetization       =    -2.09 Bohr mag/cell
     absolute magnetization    =     6.56 Bohr mag/cell

     iteration # 82     ecut=    90.00 Ry     beta= 0.20
     CG style diagonalization
     c_bands:  1 eigenvalues not converged
     c_bands:  1 eigenvalues not converged
     ethr =  2.89E-07,  avg # of iterations =  4.9

     total cpu time spent up to now is     3539.9 secs

     total energy              =   -2217.39771617 Ry
     estimated scf accuracy    <       0.16882977 Ry

     total magnetization       =    -2.21 Bohr mag/cell
     absolute magnetization    =     6.95 Bohr mag/cell

     iteration # 83     ecut=    90.00 Ry     beta= 0.20
     CG style diagonalization
     ethr =  2.89E-07,  avg # of iterations =  4.7

     total cpu time spent up to now is     3592.2 secs

     total energy              =   -2217.40424302 Ry
     estimated scf accuracy    <       0.17169864 Ry

     total magnetization       =    -2.49 Bohr mag/cell
     absolute magnetization    =     7.23 Bohr mag/cell

     iteration # 84     ecut=    90.00 Ry     beta= 0.20
     CG style diagonalization
     c_bands:  1 eigenvalues not converged
     ethr =  2.89E-07,  avg # of iterations =  4.6

     total cpu time spent up to now is     3644.0 secs

     total energy              =   -2217.40929652 Ry
     estimated scf accuracy    <       0.15730292 Ry

     total magnetization       =    -2.51 Bohr mag/cell
     absolute magnetization    =     7.44 Bohr mag/cell

     iteration # 85     ecut=    90.00 Ry     beta= 0.20
     CG style diagonalization
     ethr =  2.89E-07,  avg # of iterations =  4.8

     total cpu time spent up to now is     3697.9 secs

     total energy              =   -2217.41265008 Ry
     estimated scf accuracy    <       0.29730318 Ry

     total magnetization       =    -2.58 Bohr mag/cell
     absolute magnetization    =     7.69 Bohr mag/cell

     iteration # 86     ecut=    90.00 Ry     beta= 0.20
     CG style diagonalization
     ethr =  2.89E-07,  avg # of iterations =  4.7

     total cpu time spent up to now is     3751.1 secs

     total energy              =   -2217.41810240 Ry
     estimated scf accuracy    <       0.20846496 Ry

     total magnetization       =    -2.83 Bohr mag/cell
     absolute magnetization    =     7.89 Bohr mag/cell

     iteration # 87     ecut=    90.00 Ry     beta= 0.20
     CG style diagonalization
     ethr =  2.89E-07,  avg # of iterations =  4.6

     total cpu time spent up to now is     3802.6 secs

     total energy              =   -2217.42344358 Ry
     estimated scf accuracy    <       0.19772181 Ry

     total magnetization       =    -2.86 Bohr mag/cell
     absolute magnetization    =     7.90 Bohr mag/cell

     iteration # 88     ecut=    90.00 Ry     beta= 0.20
     CG style diagonalization
     ethr =  2.89E-07,  avg # of iterations =  4.9

     total cpu time spent up to now is     3856.7 secs

     total energy              =   -2217.43392402 Ry
     estimated scf accuracy    <       0.12909449 Ry

     total magnetization       =    -2.92 Bohr mag/cell
     absolute magnetization    =     8.26 Bohr mag/cell

     iteration # 89     ecut=    90.00 Ry     beta= 0.20
     CG style diagonalization
     ethr =  2.89E-07,  avg # of iterations =  4.7

     total cpu time spent up to now is     3909.4 secs

     total energy              =   -2217.43965353 Ry
     estimated scf accuracy    <       0.16464238 Ry

     total magnetization       =    -3.25 Bohr mag/cell
     absolute magnetization    =     8.73 Bohr mag/cell

     iteration # 90     ecut=    90.00 Ry     beta= 0.20
     CG style diagonalization
     ethr =  2.89E-07,  avg # of iterations =  4.3

     total cpu time spent up to now is     3957.8 secs

     total energy              =   -2217.44643225 Ry
     estimated scf accuracy    <       0.08455187 Ry

     total magnetization       =    -3.28 Bohr mag/cell
     absolute magnetization    =     8.79 Bohr mag/cell

     iteration # 91     ecut=    90.00 Ry     beta= 0.20
     CG style diagonalization
     ethr =  2.89E-07,  avg # of iterations =  4.1

     total cpu time spent up to now is     4004.5 secs

     total energy              =   -2217.45280450 Ry
     estimated scf accuracy    <       0.10308164 Ry

     total magnetization       =    -3.43 Bohr mag/cell
     absolute magnetization    =     9.05 Bohr mag/cell

     iteration # 92     ecut=    90.00 Ry     beta= 0.20
     CG style diagonalization
     ethr =  2.89E-07,  avg # of iterations =  4.3

     total cpu time spent up to now is     4052.5 secs

     total energy              =   -2217.45432802 Ry
     estimated scf accuracy    <       0.14167295 Ry

     total magnetization       =    -3.56 Bohr mag/cell
     absolute magnetization    =     9.19 Bohr mag/cell

     iteration # 93     ecut=    90.00 Ry     beta= 0.20
     CG style diagonalization
     ethr =  2.89E-07,  avg # of iterations =  4.5

     total cpu time spent up to now is     4102.7 secs

     total energy              =   -2217.46252554 Ry
     estimated scf accuracy    <       0.15349943 Ry

     total magnetization       =    -3.71 Bohr mag/cell
     absolute magnetization    =     9.34 Bohr mag/cell

     iteration # 94     ecut=    90.00 Ry     beta= 0.20
     CG style diagonalization
     ethr =  2.89E-07,  avg # of iterations =  4.6

     total cpu time spent up to now is     4154.0 secs

     total energy              =   -2217.46891998 Ry
     estimated scf accuracy    <       0.09522463 Ry

     total magnetization       =    -3.80 Bohr mag/cell
     absolute magnetization    =     9.72 Bohr mag/cell

     iteration # 95     ecut=    90.00 Ry     beta= 0.20
     CG style diagonalization
     ethr =  2.89E-07,  avg # of iterations =  4.0

     total cpu time spent up to now is     4199.9 secs

     total energy              =   -2217.48219121 Ry
     estimated scf accuracy    <       0.06064835 Ry

     total magnetization       =    -3.95 Bohr mag/cell
     absolute magnetization    =     9.82 Bohr mag/cell

     iteration # 96     ecut=    90.00 Ry     beta= 0.20
     CG style diagonalization
     ethr =  2.89E-07,  avg # of iterations =  4.0

     total cpu time spent up to now is     4244.8 secs

     total energy              =   -2217.48144901 Ry
     estimated scf accuracy    <       0.08189120 Ry

     total magnetization       =    -4.22 Bohr mag/cell
     absolute magnetization    =    10.39 Bohr mag/cell

     iteration # 97     ecut=    90.00 Ry     beta= 0.20
     CG style diagonalization
     ethr =  2.89E-07,  avg # of iterations =  3.5

     total cpu time spent up to now is     4285.6 secs

     total energy              =   -2217.49051833 Ry
     estimated scf accuracy    <       0.05780408 Ry

     total magnetization       =    -4.16 Bohr mag/cell
     absolute magnetization    =    10.23 Bohr mag/cell

     iteration # 98     ecut=    90.00 Ry     beta= 0.20
     CG style diagonalization
     ethr =  2.89E-07,  avg # of iterations =  3.9

     total cpu time spent up to now is     4330.2 secs

     total energy              =   -2217.50140745 Ry
     estimated scf accuracy    <       0.06515615 Ry

     total magnetization       =    -4.40 Bohr mag/cell
     absolute magnetization    =    10.61 Bohr mag/cell

     iteration # 99     ecut=    90.00 Ry     beta= 0.20
     CG style diagonalization
     ethr =  2.89E-07,  avg # of iterations =  4.1

     total cpu time spent up to now is     4376.5 secs

     total energy              =   -2217.50386729 Ry
     estimated scf accuracy    <       0.08296003 Ry

     total magnetization       =    -4.66 Bohr mag/cell
     absolute magnetization    =    11.04 Bohr mag/cell

     iteration #100     ecut=    90.00 Ry     beta= 0.20
     CG style diagonalization
     ethr =  2.89E-07,  avg # of iterations =  3.9

     total cpu time spent up to now is     4420.6 secs

     total energy              =   -2217.51172627 Ry
     estimated scf accuracy    <       0.06486624 Ry

     total magnetization       =    -4.66 Bohr mag/cell
     absolute magnetization    =    11.04 Bohr mag/cell

     iteration #101     ecut=    90.00 Ry     beta= 0.20
     CG style diagonalization
     ethr =  2.89E-07,  avg # of iterations =  4.1

     total cpu time spent up to now is     4466.8 secs

     total energy              =   -2217.50753690 Ry
     estimated scf accuracy    <       0.06985779 Ry

     total magnetization       =    -4.84 Bohr mag/cell
     absolute magnetization    =    11.38 Bohr mag/cell

     iteration #102     ecut=    90.00 Ry     beta= 0.20
     CG style diagonalization
     ethr =  2.89E-07,  avg # of iterations =  4.3

     total cpu time spent up to now is     4515.2 secs

     total energy              =   -2217.52438989 Ry
     estimated scf accuracy    <       0.07290472 Ry

     total magnetization       =    -4.85 Bohr mag/cell
     absolute magnetization    =    11.09 Bohr mag/cell

     iteration #103     ecut=    90.00 Ry     beta= 0.20
     CG style diagonalization
     ethr =  2.89E-07,  avg # of iterations =  4.4

     total cpu time spent up to now is     4564.2 secs

     total energy              =   -2217.52844401 Ry
     estimated scf accuracy    <       0.06971143 Ry

     total magnetization       =    -5.24 Bohr mag/cell
     absolute magnetization    =    11.96 Bohr mag/cell

     iteration #104     ecut=    90.00 Ry     beta= 0.20
     CG style diagonalization
     ethr =  2.89E-07,  avg # of iterations =  4.1

     total cpu time spent up to now is     4610.5 secs

     total energy              =   -2217.52511387 Ry
     estimated scf accuracy    <       0.05657475 Ry

     total magnetization       =    -5.25 Bohr mag/cell
     absolute magnetization    =    11.95 Bohr mag/cell

     iteration #105     ecut=    90.00 Ry     beta= 0.20
     CG style diagonalization
     ethr =  2.89E-07,  avg # of iterations =  4.2

     total cpu time spent up to now is     4657.6 secs

     total energy              =   -2217.53706090 Ry
     estimated scf accuracy    <       0.05844854 Ry

     total magnetization       =    -5.10 Bohr mag/cell
     absolute magnetization    =    11.74 Bohr mag/cell

     iteration #106     ecut=    90.00 Ry     beta= 0.20
     CG style diagonalization
     ethr =  2.89E-07,  avg # of iterations =  4.1

     total cpu time spent up to now is     4704.2 secs

     total energy              =   -2217.53620027 Ry
     estimated scf accuracy    <       0.05490360 Ry

     total magnetization       =    -5.52 Bohr mag/cell
     absolute magnetization    =    12.31 Bohr mag/cell

     iteration #107     ecut=    90.00 Ry     beta= 0.20
     CG style diagonalization
     ethr =  2.89E-07,  avg # of iterations =  4.0

     total cpu time spent up to now is     4749.5 secs

     total energy              =   -2217.54736976 Ry
     estimated scf accuracy    <       0.04126841 Ry

     total magnetization       =    -5.46 Bohr mag/cell
     absolute magnetization    =    12.19 Bohr mag/cell

     iteration #108     ecut=    90.00 Ry     beta= 0.20
     CG style diagonalization
     ethr =  2.89E-07,  avg # of iterations =  4.0

     total cpu time spent up to now is     4794.9 secs

     total energy              =   -2217.54775966 Ry
     estimated scf accuracy    <       0.03970398 Ry

     total magnetization       =    -5.73 Bohr mag/cell
     absolute magnetization    =    12.68 Bohr mag/cell

     iteration #109     ecut=    90.00 Ry     beta= 0.20
     CG style diagonalization
     ethr =  2.89E-07,  avg # of iterations =  4.0

     total cpu time spent up to now is     4840.8 secs

     total energy              =   -2217.55238546 Ry
     estimated scf accuracy    <       0.04233007 Ry

     total magnetization       =    -5.77 Bohr mag/cell
     absolute magnetization    =    12.55 Bohr mag/cell

     iteration #110     ecut=    90.00 Ry     beta= 0.20
     CG style diagonalization
     ethr =  2.89E-07,  avg # of iterations =  4.2

     total cpu time spent up to now is     4887.7 secs

     total energy              =   -2217.56237776 Ry
     estimated scf accuracy    <       0.03604033 Ry

     total magnetization       =    -5.88 Bohr mag/cell
     absolute magnetization    =    12.82 Bohr mag/cell

     iteration #111     ecut=    90.00 Ry     beta= 0.20
     CG style diagonalization
     ethr =  2.89E-07,  avg # of iterations =  4.4

     total cpu time spent up to now is     4936.5 secs

     total energy              =   -2217.56451185 Ry
     estimated scf accuracy    <       0.04523966 Ry

     total magnetization       =    -6.18 Bohr mag/cell
     absolute magnetization    =    13.23 Bohr mag/cell

     iteration #112     ecut=    90.00 Ry     beta= 0.20
     CG style diagonalization
     c_bands:  1 eigenvalues not converged
     ethr =  2.89E-07,  avg # of iterations =  4.2

     total cpu time spent up to now is     4984.5 secs

     total energy              =   -2217.56546134 Ry
     estimated scf accuracy    <       0.04791588 Ry

     total magnetization       =    -6.22 Bohr mag/cell
     absolute magnetization    =    13.31 Bohr mag/cell

     iteration #113     ecut=    90.00 Ry     beta= 0.20
     CG style diagonalization
     ethr =  2.89E-07,  avg # of iterations =  4.4

     total cpu time spent up to now is     5033.6 secs

     total energy              =   -2217.57057061 Ry
     estimated scf accuracy    <       0.03433693 Ry

     total magnetization       =    -6.26 Bohr mag/cell
     absolute magnetization    =    13.37 Bohr mag/cell

     iteration #114     ecut=    90.00 Ry     beta= 0.20
     CG style diagonalization
     ethr =  2.89E-07,  avg # of iterations =  4.1

     total cpu time spent up to now is     5080.4 secs

     total energy              =   -2217.57532444 Ry
     estimated scf accuracy    <       0.02056234 Ry

     total magnetization       =    -6.43 Bohr mag/cell
     absolute magnetization    =    13.49 Bohr mag/cell

     iteration #115     ecut=    90.00 Ry     beta= 0.20
     CG style diagonalization
     ethr =  2.89E-07,  avg # of iterations =  4.0

     total cpu time spent up to now is     5125.9 secs

     total energy              =   -2217.57590041 Ry
     estimated scf accuracy    <       0.01967559 Ry

     total magnetization       =    -6.53 Bohr mag/cell
     absolute magnetization    =    13.75 Bohr mag/cell

     iteration #116     ecut=    90.00 Ry     beta= 0.20
     CG style diagonalization
     ethr =  2.89E-07,  avg # of iterations =  4.1

     total cpu time spent up to now is     5171.9 secs

     total energy              =   -2217.57987008 Ry
     estimated scf accuracy    <       0.02122130 Ry

     total magnetization       =    -6.57 Bohr mag/cell
     absolute magnetization    =    13.77 Bohr mag/cell

     iteration #117     ecut=    90.00 Ry     beta= 0.20
     CG style diagonalization
     ethr =  2.89E-07,  avg # of iterations =  4.0

     total cpu time spent up to now is     5217.4 secs

     total energy              =   -2217.58097462 Ry
     estimated scf accuracy    <       0.01952401 Ry

     total magnetization       =    -6.71 Bohr mag/cell
     absolute magnetization    =    13.94 Bohr mag/cell

     iteration #118     ecut=    90.00 Ry     beta= 0.20
     CG style diagonalization
     ethr =  2.89E-07,  avg # of iterations =  3.8

     total cpu time spent up to now is     5260.6 secs

     total energy              =   -2217.58206711 Ry
     estimated scf accuracy    <       0.01531330 Ry

     total magnetization       =    -6.72 Bohr mag/cell
     absolute magnetization    =    13.97 Bohr mag/cell

     iteration #119     ecut=    90.00 Ry     beta= 0.20
     CG style diagonalization
     ethr =  2.89E-07,  avg # of iterations =  4.0

     negative rho (up, down):  0.000E+00 6.356E-08

     total cpu time spent up to now is     5305.6 secs

     total energy              =   -2217.58483375 Ry
     estimated scf accuracy    <       0.01419910 Ry

     total magnetization       =    -6.78 Bohr mag/cell
     absolute magnetization    =    14.04 Bohr mag/cell

     iteration #120     ecut=    90.00 Ry     beta= 0.20
     CG style diagonalization
     ethr =  2.89E-07,  avg # of iterations =  3.8

     negative rho (up, down):  0.000E+00 2.363E-06

     total cpu time spent up to now is     5349.1 secs

     total energy              =   -2217.58645671 Ry
     estimated scf accuracy    <       0.00939270 Ry

     total magnetization       =    -6.90 Bohr mag/cell
     absolute magnetization    =    14.23 Bohr mag/cell

     iteration #121     ecut=    90.00 Ry     beta= 0.20
     CG style diagonalization
     ethr =  2.89E-07,  avg # of iterations =  3.7

     negative rho (up, down):  0.000E+00 3.036E-06

     total cpu time spent up to now is     5391.7 secs

     total energy              =   -2217.58702219 Ry
     estimated scf accuracy    <       0.00807303 Ry

     total magnetization       =    -6.96 Bohr mag/cell
     absolute magnetization    =    14.27 Bohr mag/cell

     iteration #122     ecut=    90.00 Ry     beta= 0.20
     CG style diagonalization
     ethr =  2.89E-07,  avg # of iterations =  3.8

     negative rho (up, down):  0.000E+00 3.852E-06

     total cpu time spent up to now is     5434.7 secs

     total energy              =   -2217.58760042 Ry
     estimated scf accuracy    <       0.00983733 Ry

     total magnetization       =    -6.99 Bohr mag/cell
     absolute magnetization    =    14.32 Bohr mag/cell

     iteration #123     ecut=    90.00 Ry     beta= 0.20
     CG style diagonalization
     ethr =  2.89E-07,  avg # of iterations =  3.7

     negative rho (up, down):  0.000E+00 5.352E-06

     total cpu time spent up to now is     5476.9 secs

     total energy              =   -2217.58873185 Ry
     estimated scf accuracy    <       0.00629940 Ry

     total magnetization       =    -7.01 Bohr mag/cell
     absolute magnetization    =    14.36 Bohr mag/cell

     iteration #124     ecut=    90.00 Ry     beta= 0.20
     CG style diagonalization
     ethr =  2.89E-07,  avg # of iterations =  3.4

     negative rho (up, down):  0.000E+00 6.167E-06

     total cpu time spent up to now is     5516.6 secs

     total energy              =   -2217.58941145 Ry
     estimated scf accuracy    <       0.00524428 Ry

     total magnetization       =    -7.07 Bohr mag/cell
     absolute magnetization    =    14.44 Bohr mag/cell

     iteration #125     ecut=    90.00 Ry     beta= 0.20
     CG style diagonalization
     ethr =  2.89E-07,  avg # of iterations =  3.5

     negative rho (up, down):  0.000E+00 6.608E-06

     total cpu time spent up to now is     5556.5 secs

     total energy              =   -2217.58960458 Ry
     estimated scf accuracy    <       0.00481207 Ry

     total magnetization       =    -7.11 Bohr mag/cell
     absolute magnetization    =    14.49 Bohr mag/cell

     iteration #126     ecut=    90.00 Ry     beta= 0.20
     CG style diagonalization
     ethr =  2.89E-07,  avg # of iterations =  3.4

     negative rho (up, down):  0.000E+00 7.237E-06

     total cpu time spent up to now is     5595.9 secs

     total energy              =   -2217.59017943 Ry
     estimated scf accuracy    <       0.00303403 Ry

     total magnetization       =    -7.12 Bohr mag/cell
     absolute magnetization    =    14.48 Bohr mag/cell

     iteration #127     ecut=    90.00 Ry     beta= 0.20
     CG style diagonalization
     ethr =  2.89E-07,  avg # of iterations =  3.3

     negative rho (up, down):  0.000E+00 8.572E-06

     total cpu time spent up to now is     5634.5 secs

     total energy              =   -2217.59089524 Ry
     estimated scf accuracy    <       0.00239881 Ry

     total magnetization       =    -7.15 Bohr mag/cell
     absolute magnetization    =    14.54 Bohr mag/cell

     iteration #128     ecut=    90.00 Ry     beta= 0.20
     CG style diagonalization
     ethr =  2.89E-07,  avg # of iterations =  3.3

     negative rho (up, down):  0.000E+00 8.858E-06

     total cpu time spent up to now is     5672.9 secs

     total energy              =   -2217.59105296 Ry
     estimated scf accuracy    <       0.00274790 Ry

     total magnetization       =    -7.20 Bohr mag/cell
     absolute magnetization    =    14.61 Bohr mag/cell

     iteration #129     ecut=    90.00 Ry     beta= 0.20
     CG style diagonalization
     ethr =  2.89E-07,  avg # of iterations =  3.3

     negative rho (up, down):  0.000E+00 9.272E-06

     total cpu time spent up to now is     5711.6 secs

     total energy              =   -2217.59127773 Ry
     estimated scf accuracy    <       0.00256348 Ry

     total magnetization       =    -7.22 Bohr mag/cell
     absolute magnetization    =    14.62 Bohr mag/cell

     iteration #130     ecut=    90.00 Ry     beta= 0.20
     CG style diagonalization
     ethr =  2.89E-07,  avg # of iterations =  3.2

     negative rho (up, down):  0.000E+00 1.043E-05

     total cpu time spent up to now is     5749.2 secs

     total energy              =   -2217.59175716 Ry
     estimated scf accuracy    <       0.00211002 Ry

     total magnetization       =    -7.23 Bohr mag/cell
     absolute magnetization    =    14.64 Bohr mag/cell

     iteration #131     ecut=    90.00 Ry     beta= 0.20
     CG style diagonalization
     ethr =  2.89E-07,  avg # of iterations =  3.3

     negative rho (up, down):  0.000E+00 1.056E-05

     total cpu time spent up to now is     5787.4 secs

     total energy              =   -2217.59190503 Ry
     estimated scf accuracy    <       0.00164799 Ry

     total magnetization       =    -7.28 Bohr mag/cell
     absolute magnetization    =    14.70 Bohr mag/cell

     iteration #132     ecut=    90.00 Ry     beta= 0.20
     CG style diagonalization
     ethr =  2.89E-07,  avg # of iterations =  3.3

     negative rho (up, down):  0.000E+00 1.074E-05

     total cpu time spent up to now is     5825.3 secs

     total energy              =   -2217.59201081 Ry
     estimated scf accuracy    <       0.00150105 Ry

     total magnetization       =    -7.30 Bohr mag/cell
     absolute magnetization    =    14.73 Bohr mag/cell

     iteration #133     ecut=    90.00 Ry     beta= 0.20
     CG style diagonalization
     ethr =  2.89E-07,  avg # of iterations =  3.2

     negative rho (up, down):  0.000E+00 1.143E-05

     total cpu time spent up to now is     5862.4 secs

     total energy              =   -2217.59228119 Ry
     estimated scf accuracy    <       0.00092264 Ry

     total magnetization       =    -7.30 Bohr mag/cell
     absolute magnetization    =    14.73 Bohr mag/cell

     iteration #134     ecut=    90.00 Ry     beta= 0.20
     CG style diagonalization
     ethr =  2.89E-07,  avg # of iterations =  3.1

     negative rho (up, down):  0.000E+00 1.136E-05

     total cpu time spent up to now is     5898.4 secs

     total energy              =   -2217.59228183 Ry
     estimated scf accuracy    <       0.00072001 Ry

     total magnetization       =    -7.33 Bohr mag/cell
     absolute magnetization    =    14.77 Bohr mag/cell

     iteration #135     ecut=    90.00 Ry     beta= 0.20
     CG style diagonalization
     ethr =  2.89E-07,  avg # of iterations =  3.0

     negative rho (up, down):  0.000E+00 1.161E-05

     total cpu time spent up to now is     5934.0 secs

     total energy              =   -2217.59238807 Ry
     estimated scf accuracy    <       0.00062755 Ry

     total magnetization       =    -7.33 Bohr mag/cell
     absolute magnetization    =    14.77 Bohr mag/cell

     iteration #136     ecut=    90.00 Ry     beta= 0.20
     CG style diagonalization
     ethr =  2.89E-07,  avg # of iterations =  3.0

     negative rho (up, down):  0.000E+00 1.202E-05

     total cpu time spent up to now is     5969.3 secs

     total energy              =   -2217.59252295 Ry
     estimated scf accuracy    <       0.00052354 Ry

     total magnetization       =    -7.34 Bohr mag/cell
     absolute magnetization    =    14.79 Bohr mag/cell

     iteration #137     ecut=    90.00 Ry     beta= 0.20
     CG style diagonalization
     ethr =  2.89E-07,  avg # of iterations =  3.0

     negative rho (up, down):  0.000E+00 1.217E-05

     total cpu time spent up to now is     6004.5 secs

     total energy              =   -2217.59256284 Ry
     estimated scf accuracy    <       0.00033003 Ry

     total magnetization       =    -7.37 Bohr mag/cell
     absolute magnetization    =    14.81 Bohr mag/cell

     iteration #138     ecut=    90.00 Ry     beta= 0.20
     CG style diagonalization
     ethr =  2.50E-07,  avg # of iterations =  3.0

     negative rho (up, down):  0.000E+00 1.238E-05

     total cpu time spent up to now is     6039.8 secs

     total energy              =   -2217.59261767 Ry
     estimated scf accuracy    <       0.00036205 Ry

     total magnetization       =    -7.37 Bohr mag/cell
     absolute magnetization    =    14.82 Bohr mag/cell

     iteration #139     ecut=    90.00 Ry     beta= 0.20
     CG style diagonalization
     ethr =  2.50E-07,  avg # of iterations =  3.0

     negative rho (up, down):  0.000E+00 1.258E-05

     total cpu time spent up to now is     6075.2 secs

     total energy              =   -2217.59267595 Ry
     estimated scf accuracy    <       0.00025145 Ry

     total magnetization       =    -7.39 Bohr mag/cell
     absolute magnetization    =    14.84 Bohr mag/cell

     iteration #140     ecut=    90.00 Ry     beta= 0.20
     CG style diagonalization
     ethr =  1.90E-07,  avg # of iterations =  3.0

     negative rho (up, down):  0.000E+00 1.269E-05

     total cpu time spent up to now is     6110.6 secs

     total energy              =   -2217.59270682 Ry
     estimated scf accuracy    <       0.00015948 Ry

     total magnetization       =    -7.40 Bohr mag/cell
     absolute magnetization    =    14.85 Bohr mag/cell

     iteration #141     ecut=    90.00 Ry     beta= 0.20
     CG style diagonalization
     ethr =  1.21E-07,  avg # of iterations =  3.0

     negative rho (up, down):  0.000E+00 1.276E-05

     total cpu time spent up to now is     6146.0 secs

     total energy              =   -2217.59272182 Ry
     estimated scf accuracy    <       0.00017213 Ry

     total magnetization       =    -7.41 Bohr mag/cell
     absolute magnetization    =    14.86 Bohr mag/cell

     iteration #142     ecut=    90.00 Ry     beta= 0.20
     CG style diagonalization
     ethr =  1.21E-07,  avg # of iterations =  3.0

     negative rho (up, down):  0.000E+00 1.278E-05

     total cpu time spent up to now is     6181.4 secs

     total energy              =   -2217.59273084 Ry
     estimated scf accuracy    <       0.00014629 Ry

     total magnetization       =    -7.41 Bohr mag/cell
     absolute magnetization    =    14.87 Bohr mag/cell

     iteration #143     ecut=    90.00 Ry     beta= 0.20
     CG style diagonalization
     ethr =  1.11E-07,  avg # of iterations =  3.0

     negative rho (up, down):  0.000E+00 1.282E-05

     total cpu time spent up to now is     6216.7 secs

     total energy              =   -2217.59274638 Ry
     estimated scf accuracy    <       0.00005709 Ry

     total magnetization       =    -7.41 Bohr mag/cell
     absolute magnetization    =    14.87 Bohr mag/cell

     iteration #144     ecut=    90.00 Ry     beta= 0.20
     CG style diagonalization
     ethr =  4.32E-08,  avg # of iterations =  3.0

     negative rho (up, down):  0.000E+00 1.287E-05

     total cpu time spent up to now is     6251.9 secs

     total energy              =   -2217.59275755 Ry
     estimated scf accuracy    <       0.00005722 Ry

     total magnetization       =    -7.42 Bohr mag/cell
     absolute magnetization    =    14.88 Bohr mag/cell

     iteration #145     ecut=    90.00 Ry     beta= 0.20
     CG style diagonalization
     ethr =  4.32E-08,  avg # of iterations =  3.0

     negative rho (up, down):  0.000E+00 1.288E-05

     total cpu time spent up to now is     6287.2 secs

     total energy              =   -2217.59276092 Ry
     estimated scf accuracy    <       0.00003843 Ry

     total magnetization       =    -7.42 Bohr mag/cell
     absolute magnetization    =    14.88 Bohr mag/cell

     iteration #146     ecut=    90.00 Ry     beta= 0.20
     CG style diagonalization
     ethr =  2.91E-08,  avg # of iterations =  3.0

     negative rho (up, down):  0.000E+00 1.293E-05

     total cpu time spent up to now is     6322.5 secs

     total energy              =   -2217.59276984 Ry
     estimated scf accuracy    <       0.00002943 Ry

     total magnetization       =    -7.42 Bohr mag/cell
     absolute magnetization    =    14.88 Bohr mag/cell

     iteration #147     ecut=    90.00 Ry     beta= 0.20
     CG style diagonalization
     ethr =  2.23E-08,  avg # of iterations =  3.0

     negative rho (up, down):  0.000E+00 1.302E-05

     total cpu time spent up to now is     6357.8 secs

     total energy              =   -2217.59278049 Ry
     estimated scf accuracy    <       0.00002907 Ry

     total magnetization       =    -7.42 Bohr mag/cell
     absolute magnetization    =    14.89 Bohr mag/cell

     iteration #148     ecut=    90.00 Ry     beta= 0.20
     CG style diagonalization
     ethr =  2.20E-08,  avg # of iterations =  3.0

     negative rho (up, down):  0.000E+00 1.301E-05

     total cpu time spent up to now is     6393.5 secs

     total energy              =   -2217.59278129 Ry
     estimated scf accuracy    <       0.00002808 Ry

     total magnetization       =    -7.43 Bohr mag/cell
     absolute magnetization    =    14.90 Bohr mag/cell

     iteration #149     ecut=    90.00 Ry     beta= 0.20
     CG style diagonalization
     ethr =  2.13E-08,  avg # of iterations =  3.0

     negative rho (up, down):  9.617E-09 1.307E-05

     total cpu time spent up to now is     6428.8 secs

     total energy              =   -2217.59278754 Ry
     estimated scf accuracy    <       0.00002442 Ry

     total magnetization       =    -7.43 Bohr mag/cell
     absolute magnetization    =    14.90 Bohr mag/cell

     iteration #150     ecut=    90.00 Ry     beta= 0.20
     CG style diagonalization
     ethr =  1.85E-08,  avg # of iterations =  3.0

     negative rho (up, down):  1.478E-07 1.311E-05

     total cpu time spent up to now is     6464.5 secs

     total energy              =   -2217.59279102 Ry
     estimated scf accuracy    <       0.00002235 Ry

     total magnetization       =    -7.44 Bohr mag/cell
     absolute magnetization    =    14.91 Bohr mag/cell

     iteration #151     ecut=    90.00 Ry     beta= 0.20
     CG style diagonalization
     ethr =  1.69E-08,  avg # of iterations =  3.0

     negative rho (up, down):  1.250E-07 1.309E-05

     total cpu time spent up to now is     6499.9 secs

     total energy              =   -2217.59279159 Ry
     estimated scf accuracy    <       0.00000834 Ry

     total magnetization       =    -7.44 Bohr mag/cell
     absolute magnetization    =    14.91 Bohr mag/cell

     iteration #152     ecut=    90.00 Ry     beta= 0.20
     CG style diagonalization
     ethr =  6.32E-09,  avg # of iterations =  3.0

     negative rho (up, down):  2.398E-07 1.311E-05

     total cpu time spent up to now is     6535.6 secs

     total energy              =   -2217.59279332 Ry
     estimated scf accuracy    <       0.00000804 Ry

     total magnetization       =    -7.44 Bohr mag/cell
     absolute magnetization    =    14.91 Bohr mag/cell

     iteration #153     ecut=    90.00 Ry     beta= 0.20
[...]
     estimated scf accuracy    <       0.02279448 Ry

     total magnetization       =    -8.26 Bohr mag/cell
     absolute magnetization    =    16.19 Bohr mag/cell

     iteration #  7     ecut=    90.00 Ry     beta= 0.20
     CG style diagonalization
     ethr =  1.73E-05,  avg # of iterations =  3.2

     negative rho (up, down):  4.298E-05 3.086E-05

     total cpu time spent up to now is   109990.7 secs

     total energy              =   -2217.70619048 Ry
     estimated scf accuracy    <       0.00034722 Ry

     total magnetization       =    -8.32 Bohr mag/cell
     absolute magnetization    =    16.31 Bohr mag/cell

     iteration #  8     ecut=    90.00 Ry     beta= 0.20
     CG style diagonalization
     ethr =  2.63E-07,  avg # of iterations =  4.1

     negative rho (up, down):  4.279E-05 3.084E-05

     total cpu time spent up to now is   110037.0 secs

     total energy              =   -2217.70640680 Ry
     estimated scf accuracy    <       0.00100530 Ry

     total magnetization       =    -8.31 Bohr mag/cell
     absolute magnetization    =    16.31 Bohr mag/cell

     iteration #  9     ecut=    90.00 Ry     beta= 0.20
     CG style diagonalization
     ethr =  2.63E-07,  avg # of iterations =  3.1

     negative rho (up, down):  4.248E-05 3.076E-05

     total cpu time spent up to now is   110073.2 secs

     total energy              =   -2217.70646674 Ry
     estimated scf accuracy    <       0.00005666 Ry

     total magnetization       =    -8.31 Bohr mag/cell
     absolute magnetization    =    16.30 Bohr mag/cell

     iteration # 10     ecut=    90.00 Ry     beta= 0.20
     CG style diagonalization
     ethr =  4.29E-08,  avg # of iterations =  3.1

     negative rho (up, down):  4.224E-05 3.069E-05

     total cpu time spent up to now is   110109.2 secs

     total energy              =   -2217.70647201 Ry
     estimated scf accuracy    <       0.00001124 Ry

     total magnetization       =    -8.31 Bohr mag/cell
     absolute magnetization    =    16.29 Bohr mag/cell

     iteration # 11     ecut=    90.00 Ry     beta= 0.20
     CG style diagonalization
     ethr =  8.52E-09,  avg # of iterations =  3.2

     negative rho (up, down):  4.184E-05 3.059E-05

     total cpu time spent up to now is   110146.7 secs

     total energy              =   -2217.70647390 Ry
     estimated scf accuracy    <       0.00000520 Ry

     total magnetization       =    -8.31 Bohr mag/cell
     absolute magnetization    =    16.29 Bohr mag/cell

     iteration # 12     ecut=    90.00 Ry     beta= 0.20
     CG style diagonalization
     ethr =  3.94E-09,  avg # of iterations =  3.0

     negative rho (up, down):  4.160E-05 3.053E-05

     total cpu time spent up to now is   110182.1 secs

     total energy              =   -2217.70647444 Ry
     estimated scf accuracy    <       0.00000447 Ry

     total magnetization       =    -8.31 Bohr mag/cell
     absolute magnetization    =    16.29 Bohr mag/cell

     iteration # 13     ecut=    90.00 Ry     beta= 0.20
     CG style diagonalization
     ethr =  3.39E-09,  avg # of iterations =  3.0

     negative rho (up, down):  4.037E-05 3.024E-05

     total cpu time spent up to now is   110217.2 secs

     total energy              =   -2217.70647578 Ry
     estimated scf accuracy    <       0.00000384 Ry

     total magnetization       =    -8.31 Bohr mag/cell
     absolute magnetization    =    16.29 Bohr mag/cell

     iteration # 14     ecut=    90.00 Ry     beta= 0.20
     CG style diagonalization
     ethr =  2.91E-09,  avg # of iterations =  3.0

     negative rho (up, down):  4.037E-05 3.023E-05

     total cpu time spent up to now is   110252.5 secs

     total energy              =   -2217.70647599 Ry
     estimated scf accuracy    <       0.00000208 Ry

     total magnetization       =    -8.30 Bohr mag/cell
     absolute magnetization    =    16.29 Bohr mag/cell

     iteration # 15     ecut=    90.00 Ry     beta= 0.20
     CG style diagonalization
     ethr =  1.58E-09,  avg # of iterations =  3.0

     negative rho (up, down):  3.987E-05 3.011E-05

     total cpu time spent up to now is   110287.9 secs

     total energy              =   -2217.70647636 Ry
     estimated scf accuracy    <       0.00000264 Ry

     total magnetization       =    -8.30 Bohr mag/cell
     absolute magnetization    =    16.29 Bohr mag/cell

     iteration # 16     ecut=    90.00 Ry     beta= 0.20
     CG style diagonalization
     ethr =  1.58E-09,  avg # of iterations =  3.0

     negative rho (up, down):  3.991E-05 3.013E-05

     total cpu time spent up to now is   110323.0 secs

     total energy              =   -2217.70647651 Ry
     estimated scf accuracy    <       0.00000051 Ry

     total magnetization       =    -8.30 Bohr mag/cell
     absolute magnetization    =    16.29 Bohr mag/cell

     iteration # 17     ecut=    90.00 Ry     beta= 0.20
     CG style diagonalization
     ethr =  3.88E-10,  avg # of iterations =  3.2

     negative rho (up, down):  3.981E-05 3.010E-05

     total cpu time spent up to now is   110359.9 secs

     total energy              =   -2217.70647656 Ry
     estimated scf accuracy    <       0.00000111 Ry

     total magnetization       =    -8.30 Bohr mag/cell
     absolute magnetization    =    16.29 Bohr mag/cell

     iteration # 18     ecut=    90.00 Ry     beta= 0.20
     CG style diagonalization
     ethr =  3.88E-10,  avg # of iterations =  3.1

     negative rho (up, down):  3.985E-05 3.011E-05

     total cpu time spent up to now is   110395.4 secs

     total energy              =   -2217.70647660 Ry
     estimated scf accuracy    <       0.00000024 Ry

     total magnetization       =    -8.30 Bohr mag/cell
     absolute magnetization    =    16.29 Bohr mag/cell

     iteration # 19     ecut=    90.00 Ry     beta= 0.20
     CG style diagonalization
     ethr =  1.78E-10,  avg # of iterations =  3.0

     negative rho (up, down):  3.975E-05 3.009E-05

     total cpu time spent up to now is   110430.4 secs

     total energy              =   -2217.70647665 Ry
     estimated scf accuracy    <       0.00000023 Ry

     total magnetization       =    -8.30 Bohr mag/cell
     absolute magnetization    =    16.29 Bohr mag/cell

     iteration # 20     ecut=    90.00 Ry     beta= 0.20
     CG style diagonalization
     ethr =  1.70E-10,  avg # of iterations =  3.0

     negative rho (up, down):  3.970E-05 3.008E-05

     total cpu time spent up to now is   110465.4 secs

     total energy              =   -2217.70647667 Ry
     estimated scf accuracy    <       0.00000011 Ry

     total magnetization       =    -8.30 Bohr mag/cell
     absolute magnetization    =    16.29 Bohr mag/cell

     iteration # 21     ecut=    90.00 Ry     beta= 0.20
     CG style diagonalization
     ethr =  8.27E-11,  avg # of iterations =  3.0

     negative rho (up, down):  3.968E-05 3.008E-05

     total cpu time spent up to now is   110500.5 secs

     total energy              =   -2217.70647667 Ry
     estimated scf accuracy    <       0.00000018 Ry

     total magnetization       =    -8.30 Bohr mag/cell
     absolute magnetization    =    16.29 Bohr mag/cell

     iteration # 22     ecut=    90.00 Ry     beta= 0.20
     CG style diagonalization
     ethr =  8.27E-11,  avg # of iterations =  3.0

     negative rho (up, down):  3.952E-05 3.005E-05

     total cpu time spent up to now is   110535.5 secs

     total energy              =   -2217.70647671 Ry
     estimated scf accuracy    <       0.00000008 Ry

     total magnetization       =    -8.30 Bohr mag/cell
     absolute magnetization    =    16.29 Bohr mag/cell

     iteration # 23     ecut=    90.00 Ry     beta= 0.20
     CG style diagonalization
     ethr =  6.11E-11,  avg # of iterations =  3.1

     negative rho (up, down):  3.955E-05 3.006E-05

     total cpu time spent up to now is   110571.3 secs

     total energy              =   -2217.70647671 Ry
     estimated scf accuracy    <       0.00000009 Ry

     total magnetization       =    -8.30 Bohr mag/cell
     absolute magnetization    =    16.29 Bohr mag/cell

     iteration # 24     ecut=    90.00 Ry     beta= 0.20
     CG style diagonalization
     ethr =  6.11E-11,  avg # of iterations =  3.0

     negative rho (up, down):  3.948E-05 3.005E-05

     total cpu time spent up to now is   110606.7 secs

     total energy              =   -2217.70647672 Ry
     estimated scf accuracy    <       0.00000009 Ry

     total magnetization       =    -8.30 Bohr mag/cell
     absolute magnetization    =    16.29 Bohr mag/cell

     iteration # 25     ecut=    90.00 Ry     beta= 0.20
     CG style diagonalization
     ethr =  6.11E-11,  avg # of iterations =  3.0

     negative rho (up, down):  3.949E-05 3.005E-05

     total cpu time spent up to now is   110641.9 secs

     total energy              =   -2217.70647672 Ry
     estimated scf accuracy    <       0.00000009 Ry

     total magnetization       =    -8.30 Bohr mag/cell
     absolute magnetization    =    16.29 Bohr mag/cell

     iteration # 26     ecut=    90.00 Ry     beta= 0.20
     CG style diagonalization
     ethr =  6.11E-11,  avg # of iterations =  3.0

     negative rho (up, down):  3.945E-05 3.005E-05

     total cpu time spent up to now is   110676.8 secs

     total energy              =   -2217.70647673 Ry
     estimated scf accuracy    <       0.00000003 Ry

     total magnetization       =    -8.30 Bohr mag/cell
     absolute magnetization    =    16.29 Bohr mag/cell

     iteration # 27     ecut=    90.00 Ry     beta= 0.20
     CG style diagonalization
     ethr =  1.92E-11,  avg # of iterations =  3.0

     negative rho (up, down):  3.946E-05 3.005E-05

     total cpu time spent up to now is   110711.8 secs

     total energy              =   -2217.70647673 Ry
     estimated scf accuracy    <       0.00000002 Ry

     total magnetization       =    -8.30 Bohr mag/cell
     absolute magnetization    =    16.29 Bohr mag/cell

     iteration # 28     ecut=    90.00 Ry     beta= 0.20
     CG style diagonalization
     ethr =  1.74E-11,  avg # of iterations =  3.0

     negative rho (up, down):  3.945E-05 3.005E-05

     total cpu time spent up to now is   110746.8 secs

     total energy              =   -2217.70647674 Ry
     estimated scf accuracy    <       0.00000002 Ry

     total magnetization       =    -8.30 Bohr mag/cell
     absolute magnetization    =    16.29 Bohr mag/cell

     iteration # 29     ecut=    90.00 Ry     beta= 0.20
     CG style diagonalization
     ethr =  1.16E-11,  avg # of iterations =  3.0

     negative rho (up, down):  3.940E-05 3.005E-05

     Magnetic moment per site:
     atom:    1    charge:   16.2879    magn:   -0.2096    constr:    0.0000
     atom:    2    charge:   12.7785    magn:   -3.3414    constr:    0.0000
     atom:    3    charge:   16.2893    magn:   -0.1715    constr:    0.0000
     atom:    4    charge:   12.7752    magn:   -3.3374    constr:    0.0000
     atom:    5    charge:   16.2656    magn:   -0.2100    constr:    0.0000
     atom:    6    charge:   12.7873    magn:   -3.3546    constr:    0.0000
     atom:    7    charge:   16.2892    magn:   -0.5864    constr:    0.0000
     atom:    8    charge:   12.7506    magn:    3.4077    constr:    0.0000

     total cpu time spent up to now is   110781.7 secs

     End of self-consistent calculation

     Number of k-points >= 100: set verbosity='high' to print the bands.

     the Fermi energy is    14.0801 ev

!    total energy              =   -2217.70647674 Ry
     estimated scf accuracy    <          7.8E-09 Ry
     smearing contrib. (-TS)   =      -0.00409227 Ry
     internal energy E=F+TS    =   -2217.70238447 Ry

     total magnetization       =    -8.30 Bohr mag/cell
     absolute magnetization    =    16.29 Bohr mag/cell

     convergence has been achieved in  29 iterations

     negative rho (up, down):  3.940E-05 3.005E-05

     Forces acting on atoms (cartesian axes, Ry/au):

     atom    1 type  1   force =    -0.04089338    0.01888190   -0.02073036
     atom    2 type  2   force =    -0.00305527    0.01022573   -0.01053624
     atom    3 type  1   force =    -0.00848079   -0.01450083    0.03216130
     atom    4 type  2   force =    -0.00322695   -0.01032061   -0.00834415
     atom    5 type  1   force =     0.02636590   -0.02788372   -0.02544849
     atom    6 type  2   force =     0.00756247   -0.00713698    0.00343403
     atom    7 type  1   force =     0.01415941    0.02643923    0.01592438
     atom    8 type  2   force =     0.00756861    0.00429527    0.01353953

     Total force =     0.088538     Total SCF correction =     0.000070


     Computing stress (Cartesian axis) and pressure


     negative rho (up, down):  3.940E-05 3.005E-05
          total   stress  (Ry/bohr**3)                   (kbar)     P=      -34.66
  -0.00024504   0.00005030   0.00005553          -36.05        7.40        8.17
   0.00005030  -0.00020744  -0.00001256            7.40      -30.52       -1.85
   0.00005553  -0.00001256  -0.00025431            8.17       -1.85      -37.41


     Entering Dynamics;  it =   102   time =  0.09772 pico-seconds

  new lattice vectors (alat unit) :
   1.040233933   0.006389471   0.002733511
   0.006389471   1.038657221   0.000432750
   0.002733511   0.000432750   1.044206773
  new unit-cell volume =    758.4745 (a.u.)^3
  new positions in cryst coord
Ni      -0.049080418   0.524325680   0.010405474
Mn       0.505478155   0.031520497   0.448409436
Ni       0.003022405   0.004830718   0.551160054
Mn       0.438868160   0.444695982  -0.001934412
Ni       0.551067331  -0.052328200  -0.046909236
Mn       0.001684483   0.500437711   0.496214762
Ni       0.497131232   0.524739696   0.488713296
Mn       0.051682347   0.021670752   0.053710317
  new positions in cart coord (alat unit)
Ni      -0.047676509   0.544285559   0.010958206
Mn       0.527242661   0.036162779   0.469627540
Ni       0.004681476   0.005275286   0.575535413
Mn       0.459361636   0.464689991  -0.000627833
Ni       0.572776360  -0.050850334  -0.047499239
Mn       0.006306197   0.520008742   0.518371984
Ni       0.521821488   0.548412570   0.511903728
Mn       0.054047013   0.022861948   0.056235329

     Ekin =     0.03398837 Ry    T =  363.6 K  Etot =    -2217.67248319
     new unit-cell volume =    758.47448 a.u.^3 (   112.39432 Ang^3 )
     density =      6.71524 g/cm^3

CELL_PARAMETERS (angstrom)
   4.822316467   0.029620307   0.012672010
   0.029620307   4.815007147   0.002006140
   0.012672010   0.002006140   4.840733756

ATOMIC_POSITIONS (angstrom)
Ni           -0.2210187618        2.5231989938        0.0508000504
Mn            2.4441915267        0.1676434091        2.1770993514
Ni            0.0217023857        0.0244551707        2.6680670674
Mn            2.1295086734        2.1542098587       -0.0029105104
Ni            2.6552766509       -0.2357319804       -0.2201969707
Mn            0.0292342681        2.4106565279        2.4030688423
Ni            2.4190600555        2.5423309925        2.3730833028
Mn            0.2505511428        0.1059834208        0.2606957384



     Maximum number of iterations reached, stopping

     init_run     :     16.24s CPU     17.18s WALL (       1 calls)
     electrons    : 104392.28s CPU 108088.58s WALL (     102 calls)
     update_pot   :    173.11s CPU    176.51s WALL (     101 calls)
     forces       :    833.98s CPU    881.23s WALL (     102 calls)
     stress       :   1456.93s CPU   1522.77s WALL (     102 calls)

     Called by init_run:
     wfcinit      :     13.74s CPU     14.24s WALL (       1 calls)
     potinit      :      0.55s CPU      0.61s WALL (       1 calls)
     hinit0       :      1.00s CPU      1.12s WALL (       1 calls)

     Called by electrons:
     c_bands      :  89724.80s CPU  91610.34s WALL (    2616 calls)
     sum_band     :  12216.93s CPU  13320.49s WALL (    2616 calls)
     v_of_rho     :    510.55s CPU    593.67s WALL (    2717 calls)
     newd         :   1914.30s CPU   2541.47s WALL (    2717 calls)
     mix_rho      :     51.88s CPU     63.39s WALL (    2616 calls)

     Called by c_bands:
     init_us_2    :    737.32s CPU    764.26s WALL (  685062 calls)
     ccgdiagg     :  65127.09s CPU  66398.25s WALL (  340701 calls)
     wfcrot       :  23438.94s CPU  23987.51s WALL (  327849 calls)

     Called by *cgdiagg:
     h_psi        :  49933.79s CPU  51003.95s WALL (68575092 calls)
     s_psi        :  15093.44s CPU  15377.04s WALL (******** calls)

     Called by h_psi:
     h_psi:calbec :  10894.54s CPU  11189.89s WALL (68575092 calls)
     vloc_psi     :  29455.22s CPU  30067.28s WALL (68575092 calls)
     add_vuspsi   :   8959.09s CPU   9115.36s WALL (68575092 calls)
     hs_1psi      :  42129.38s CPU  42951.70s WALL (68247243 calls)
     s_1psi       :  13816.59s CPU  14077.97s WALL (68247243 calls)

     General routines
     calbec       :  21849.04s CPU  22467.24s WALL (******** calls)
     fft          :    206.77s CPU    275.60s WALL (   71904 calls)
     ffts         :      8.39s CPU      8.55s WALL (   10666 calls)
     fftw         :  31209.10s CPU  31859.88s WALL (******** calls)
     interpolate  :     22.19s CPU     28.61s WALL (    5434 calls)

     Parallel routines
     fft_scatt_xy :   2609.68s CPU   2656.69s WALL (******** calls)
     fft_scatt_yz :  15462.58s CPU  15861.51s WALL (******** calls)

     PWSCF        :   1d 5h42m CPU   1d 6h46m WALL


   This run was terminated on:   4:45:25  12Feb2022            

=------------------------------------------------------------------------------=
   JOB DONE.
=------------------------------------------------------------------------------=
Note: The following floating-point exceptions are signalling: IEEE_UNDERFLOW_FLAG IEEE_DENORMAL
Note: The following floating-point exceptions are signalling: IEEE_UNDERFLOW_FLAG IEEE_DENORMAL
Note: The following floating-point exceptions are signalling: IEEE_UNDERFLOW_FLAG IEEE_DENORMAL
Note: The following floating-point exceptions are signalling: IEEE_UNDERFLOW_FLAG IEEE_DENORMAL
Note: The following floating-point exceptions are signalling: IEEE_UNDERFLOW_FLAG IEEE_DENORMAL
Note: The following floating-point exceptions are signalling: IEEE_UNDERFLOW_FLAG IEEE_DENORMAL
Note: The following floating-point exceptions are signalling: IEEE_UNDERFLOW_FLAG IEEE_DENORMAL
Note: The following floating-point exceptions are signalling: IEEE_UNDERFLOW_FLAG IEEE_DENORMAL
Note: The following floating-point exceptions are signalling: IEEE_UNDERFLOW_FLAG IEEE_DENORMAL
Note: The following floating-point exceptions are signalling: IEEE_UNDERFLOW_FLAG IEEE_DENORMAL
Note: The following floating-point exceptions are signalling: IEEE_UNDERFLOW_FLAG IEEE_DENORMAL
Note: The following floating-point exceptions are signalling: IEEE_UNDERFLOW_FLAG IEEE_DENORMAL
Note: The following floating-point exceptions are signalling: IEEE_UNDERFLOW_FLAG IEEE_DENORMAL
Note: The following floating-point exceptions are signalling: IEEE_UNDERFLOW_FLAG IEEE_DENORMAL
Note: The following floating-point exceptions are signalling: IEEE_UNDERFLOW_FLAG IEEE_DENORMAL
Note: The following floating-point exceptions are signalling: IEEE_UNDERFLOW_FLAG IEEE_DENORMAL
Note: The following floating-point exceptions are signalling: IEEE_UNDERFLOW_FLAG IEEE_DENORMAL
Note: The following floating-point exceptions are signalling: IEEE_UNDERFLOW_FLAG IEEE_DENORMAL
Note: The following floating-point exceptions are signalling: IEEE_UNDERFLOW_FLAG IEEE_DENORMAL
Note: The following floating-point exceptions are signalling: IEEE_UNDERFLOW_FLAG IEEE_DENORMAL
Note: The following floating-point exceptions are signalling: IEEE_UNDERFLOW_FLAG IEEE_DENORMAL
Note: The following floating-point exceptions are signalling: IEEE_UNDERFLOW_FLAG IEEE_DENORMAL
Note: The following floating-point exceptions are signalling: IEEE_UNDERFLOW_FLAG IEEE_DENORMAL
Note: The following floating-point exceptions are signalling: IEEE_UNDERFLOW_FLAG IEEE_DENORMAL
