 # Co4 Ni4
 
           8  atoms
           2  atom types
 
      0.000000000000       4.423008000000  xlo xhi
      0.000000000000       4.423008000000  ylo yhi
      0.000000000000       4.423008000000  zlo zhi
 
Masses
 
            1   58.93319500             # Co
            2   58.69340000             # Ni
 
Atoms # atomic
 
         1    1        0.000000000000       0.000000000000       0.000000000000
         2    2        2.211504000000       2.211504000000       2.211504000000
         3    1        4.423008000000       2.211504000000       2.211504000000
         4    2        2.211504000000       0.000000000000       0.000000000000
         5    1        2.211504000000       2.211504000000       0.000000000000
         6    2        4.423008000000       4.423008000000       2.211504000000
         7    1        2.211504000000       4.423008000000       2.211504000000
         8    2        4.423008000000       2.211504000000       0.000000000000
