
     Program PWSCF v.6.7MaX starts on 16May2022 at 23: 0: 9 

     This program is part of the open-source Quantum ESPRESSO suite
     for quantum simulation of materials; please cite
         "P. Giannozzi et al., J. Phys.:Condens. Matter 21 395502 (2009);
         "P. Giannozzi et al., J. Phys.:Condens. Matter 29 465901 (2017);
          URL http://www.quantum-espresso.org", 
     in publications or presentations arising from this work. More details at
     http://www.quantum-espresso.org/quote

     Parallel version (MPI), running on     4 processors

     MPI processes distributed on     1 nodes
     R & G space division:  proc/nbgrp/npool/nimage =       4
     Reading input from Fe_mp-150.in

     Current dimensions of program PWSCF are:
     Max number of different atomic species (ntypx) = 10
     Max number of k-points (npk) =  40000
     Max angular momentum in pseudopotentials (lmaxx) =  3
     file Fe.pbe-spn-kjpaw_psl.0.2.1.UPF: wavefunction(s)  3D renormalized

     Subspace diagonalization in iterative solution of the eigenvalue problem:
     a serial algorithm will be used


     Parallelization info
     --------------------
     sticks:   dense  smooth     PW     G-vecs:    dense   smooth      PW
     Min         441     145     46                12216     2351     420
     Max         442     146     47                12219     2354     423
     Sum        1765     583    187                48869     9409    1687



     bravais-lattice index     =            0
     lattice parameter (alat)  =       4.8715  a.u.
     unit-cell volume          =      81.7484 (a.u.)^3
     number of atoms/cell      =            1
     number of atomic types    =            1
     number of electrons       =        16.00
     number of Kohn-Sham states=           12
     kinetic-energy cutoff     =      90.0000  Ry
     charge density cutoff     =    1080.0000  Ry
     scf convergence threshold =      1.0E-08
     mixing beta               =       0.2000
     number of iterations used =            8  plain     mixing
     energy convergence thresh.=      1.0E-05
     force convergence thresh. =      1.0E-04
     press convergence thresh. =      1.0E-01
     Exchange-correlation= SLA  PW   PBX  PBC
                           (   1   4   3   4   0   0   0)
     nstep                     =         1000


     celldm(1)=   4.871523  celldm(2)=   0.000000  celldm(3)=   0.000000
     celldm(4)=   0.000000  celldm(5)=   0.000000  celldm(6)=   0.000000

     crystal axes: (cart. coord. in units of alat)
               a(1) = (   1.000000   0.000000   0.000000 )  
               a(2) = (   0.500000   0.866025   0.000000 )  
               a(3) = (   0.500000   0.288675   0.816497 )  

     reciprocal axes: (cart. coord. in units 2 pi/alat)
               b(1) = (  1.000000 -0.577350 -0.408248 )  
               b(2) = (  0.000000  1.154701 -0.408248 )  
               b(3) = (  0.000000  0.000000  1.224745 )  


     PseudoPot. # 1 for Fe read from file:
     /opt/QEpot/SSSP_precision_pseudos/Fe.pbe-spn-kjpaw_psl.0.2.1.UPF
     MD5 check sum: e86618425769142926afa95317d90200
     Pseudo is Projector augmented-wave + core cor, Zval = 16.0
     Generated using "atomic" code by A. Dal Corso  v.5.0.99 svn rev. 10869
     Shape of augmentation charge: PSQ
     Using radial grid of 1191 points,  6 beta functions with: 
                l(1) =   0
                l(2) =   0
                l(3) =   1
                l(4) =   1
                l(5) =   2
                l(6) =   2
     Q(r) pseudized with 0 coefficients 


     atomic species   valence    mass     pseudopotential
        Fe            16.00    55.84500     Fe( 1.00)

     Starting magnetic structure 
     atomic species   magnetization
        Fe           0.200

     No symmetry found



   Cartesian axes

     site n.     atom                  positions (alat units)
         1           Fe  tau(   1) = (   0.0000000   0.0000000   0.0000000  )

     number of k points=    63  Gaussian smearing, width (Ry)=  0.0100
                       cart. coord. in units 2pi/alat
        k(    1) = (   0.0000000   0.0000000   0.0000000), wk =   0.0080000
        k(    2) = (   0.0000000   0.0000000   0.2449490), wk =   0.0160000
        k(    3) = (   0.0000000   0.0000000   0.4898979), wk =   0.0160000
        k(    4) = (   0.0000000   0.2309401  -0.0816497), wk =   0.0160000
        k(    5) = (   0.0000000   0.2309401   0.1632993), wk =   0.0160000
        k(    6) = (   0.0000000   0.2309401   0.4082483), wk =   0.0160000
        k(    7) = (   0.0000000   0.2309401  -0.5715476), wk =   0.0160000
        k(    8) = (   0.0000000   0.2309401  -0.3265986), wk =   0.0160000
        k(    9) = (   0.0000000   0.4618802  -0.1632993), wk =   0.0160000
        k(   10) = (   0.0000000   0.4618802   0.0816497), wk =   0.0160000
        k(   11) = (   0.0000000   0.4618802   0.3265986), wk =   0.0160000
        k(   12) = (   0.0000000   0.4618802  -0.6531973), wk =   0.0160000
        k(   13) = (   0.0000000   0.4618802  -0.4082483), wk =   0.0160000
        k(   14) = (   0.2000000  -0.1154701  -0.0816497), wk =   0.0160000
        k(   15) = (   0.2000000  -0.1154701   0.1632993), wk =   0.0160000
        k(   16) = (   0.2000000  -0.1154701   0.4082483), wk =   0.0160000
        k(   17) = (   0.2000000  -0.1154701  -0.5715476), wk =   0.0160000
        k(   18) = (   0.2000000  -0.1154701  -0.3265986), wk =   0.0160000
        k(   19) = (   0.2000000   0.1154701  -0.1632993), wk =   0.0160000
        k(   20) = (   0.2000000   0.1154701   0.0816497), wk =   0.0160000
        k(   21) = (   0.2000000   0.1154701   0.3265986), wk =   0.0160000
        k(   22) = (   0.2000000   0.1154701  -0.6531973), wk =   0.0160000
        k(   23) = (   0.2000000   0.1154701  -0.4082483), wk =   0.0160000
        k(   24) = (   0.2000000   0.3464102  -0.2449490), wk =   0.0160000
        k(   25) = (   0.2000000   0.3464102   0.0000000), wk =   0.0160000
        k(   26) = (   0.2000000   0.3464102   0.2449490), wk =   0.0160000
        k(   27) = (   0.2000000   0.3464102  -0.7348469), wk =   0.0160000
        k(   28) = (   0.2000000   0.3464102  -0.4898979), wk =   0.0160000
        k(   29) = (   0.2000000  -0.5773503   0.0816497), wk =   0.0160000
        k(   30) = (   0.2000000  -0.5773503   0.3265986), wk =   0.0160000
        k(   31) = (   0.2000000  -0.5773503   0.5715476), wk =   0.0160000
        k(   32) = (   0.2000000  -0.5773503  -0.4082483), wk =   0.0160000
        k(   33) = (   0.2000000  -0.5773503  -0.1632993), wk =   0.0160000
        k(   34) = (   0.2000000  -0.3464102  -0.0000000), wk =   0.0160000
        k(   35) = (   0.2000000  -0.3464102   0.2449490), wk =   0.0160000
        k(   36) = (   0.2000000  -0.3464102   0.4898979), wk =   0.0160000
        k(   37) = (   0.2000000  -0.3464102  -0.4898979), wk =   0.0160000
        k(   38) = (   0.2000000  -0.3464102  -0.2449490), wk =   0.0160000
        k(   39) = (   0.4000000  -0.2309401  -0.1632993), wk =   0.0160000
        k(   40) = (   0.4000000  -0.2309401   0.0816497), wk =   0.0160000
        k(   41) = (   0.4000000  -0.2309401   0.3265986), wk =   0.0160000
        k(   42) = (   0.4000000  -0.2309401  -0.6531973), wk =   0.0160000
        k(   43) = (   0.4000000  -0.2309401  -0.4082483), wk =   0.0160000
        k(   44) = (   0.4000000   0.0000000  -0.2449490), wk =   0.0160000
        k(   45) = (   0.4000000   0.0000000   0.0000000), wk =   0.0160000
        k(   46) = (   0.4000000   0.0000000   0.2449490), wk =   0.0160000
        k(   47) = (   0.4000000   0.0000000  -0.7348469), wk =   0.0160000
        k(   48) = (   0.4000000   0.0000000  -0.4898979), wk =   0.0160000
        k(   49) = (   0.4000000   0.2309401  -0.3265986), wk =   0.0160000
        k(   50) = (   0.4000000   0.2309401  -0.0816497), wk =   0.0160000
        k(   51) = (   0.4000000   0.2309401   0.1632993), wk =   0.0160000
        k(   52) = (   0.4000000   0.2309401  -0.8164966), wk =   0.0160000
        k(   53) = (   0.4000000   0.2309401  -0.5715476), wk =   0.0160000
        k(   54) = (   0.4000000  -0.6928203   0.0000000), wk =   0.0160000
        k(   55) = (   0.4000000  -0.6928203   0.2449490), wk =   0.0160000
        k(   56) = (   0.4000000  -0.6928203   0.4898979), wk =   0.0160000
        k(   57) = (   0.4000000  -0.6928203  -0.4898979), wk =   0.0160000
        k(   58) = (   0.4000000  -0.6928203  -0.2449490), wk =   0.0160000
        k(   59) = (   0.4000000  -0.4618802  -0.0816497), wk =   0.0160000
        k(   60) = (   0.4000000  -0.4618802   0.1632993), wk =   0.0160000
        k(   61) = (   0.4000000  -0.4618802   0.4082483), wk =   0.0160000
        k(   62) = (   0.4000000  -0.4618802  -0.5715476), wk =   0.0160000
        k(   63) = (   0.4000000  -0.4618802  -0.3265986), wk =   0.0160000

     Dense  grid:    48869 G-vectors     FFT dimensions: (  54,  54,  54)

     Smooth grid:     9409 G-vectors     FFT dimensions: (  30,  30,  30)

     Estimated max dynamical RAM per process >      63.04 MB

     Estimated total dynamical RAM >     252.16 MB

     Check: negative core charge=   -0.000010
     Generating pointlists ...
     new r_m :   0.4125 (alat units)  2.0095 (a.u.) for type    1

     Initial potential from superposition of free atoms

     starting charge   15.99956, renormalised to   16.00000
     Starting wfcs are   13 randomized atomic wfcs
     Checking if some PAW data can be deallocated... 

     total cpu time spent up to now is        1.2 secs

     Self-consistent Calculation

     iteration #  1     ecut=    90.00 Ry     beta= 0.20
     Davidson diagonalization with overlap
     ethr =  1.00E-02,  avg # of iterations =  3.7

     Threshold (ethr) on eigenvalues was too large:
     Diagonalizing with lowered threshold

     Davidson diagonalization with overlap
     ethr =  1.14E-04,  avg # of iterations =  4.7

     total cpu time spent up to now is        3.0 secs

     total energy              =    -329.24294981 Ry
     estimated scf accuracy    <       0.01735562 Ry

     total magnetization       =     2.87 Bohr mag/cell
     absolute magnetization    =     2.88 Bohr mag/cell

     iteration #  2     ecut=    90.00 Ry     beta= 0.20
     Davidson diagonalization with overlap
     ethr =  1.08E-04,  avg # of iterations =  1.0

     negative rho (up, down):  0.000E+00 1.771E-06

     total cpu time spent up to now is        3.8 secs

     total energy              =    -329.24951018 Ry
     estimated scf accuracy    <       0.00644899 Ry

     total magnetization       =     2.83 Bohr mag/cell
     absolute magnetization    =     2.85 Bohr mag/cell

     iteration #  3     ecut=    90.00 Ry     beta= 0.20
     Davidson diagonalization with overlap
     ethr =  4.03E-05,  avg # of iterations =  1.1

     negative rho (up, down):  0.000E+00 3.635E-05

     total cpu time spent up to now is        4.6 secs

     total energy              =    -329.25556981 Ry
     estimated scf accuracy    <       0.00311897 Ry

     total magnetization       =     2.80 Bohr mag/cell
     absolute magnetization    =     2.83 Bohr mag/cell

     iteration #  4     ecut=    90.00 Ry     beta= 0.20
     Davidson diagonalization with overlap
     ethr =  1.95E-05,  avg # of iterations =  2.3

     negative rho (up, down):  0.000E+00 3.540E-05

     total cpu time spent up to now is        5.5 secs

     total energy              =    -329.25648839 Ry
     estimated scf accuracy    <       0.00009467 Ry

     total magnetization       =     2.70 Bohr mag/cell
     absolute magnetization    =     2.78 Bohr mag/cell

     iteration #  5     ecut=    90.00 Ry     beta= 0.20
     Davidson diagonalization with overlap
     c_bands:  1 eigenvalues not converged
     ethr =  5.92E-07,  avg # of iterations =  5.0

     negative rho (up, down):  0.000E+00 3.304E-05

     total cpu time spent up to now is        6.6 secs

     total energy              =    -329.25663297 Ry
     estimated scf accuracy    <       0.00006675 Ry

     total magnetization       =     2.69 Bohr mag/cell
     absolute magnetization    =     2.78 Bohr mag/cell

     iteration #  6     ecut=    90.00 Ry     beta= 0.20
     Davidson diagonalization with overlap
     ethr =  4.17E-07,  avg # of iterations =  2.0

     negative rho (up, down):  0.000E+00 3.324E-05

     total cpu time spent up to now is        7.4 secs

     total energy              =    -329.25671567 Ry
     estimated scf accuracy    <       0.00007985 Ry

     total magnetization       =     2.63 Bohr mag/cell
     absolute magnetization    =     2.74 Bohr mag/cell

     iteration #  7     ecut=    90.00 Ry     beta= 0.20
     Davidson diagonalization with overlap
     ethr =  4.17E-07,  avg # of iterations =  2.0

     negative rho (up, down):  0.000E+00 3.241E-05

     total cpu time spent up to now is        8.3 secs

     total energy              =    -329.25674778 Ry
     estimated scf accuracy    <       0.00004007 Ry

     total magnetization       =     2.62 Bohr mag/cell
     absolute magnetization    =     2.73 Bohr mag/cell

     iteration #  8     ecut=    90.00 Ry     beta= 0.20
     Davidson diagonalization with overlap
     ethr =  2.50E-07,  avg # of iterations =  1.5

     negative rho (up, down):  0.000E+00 3.207E-05

     total cpu time spent up to now is        9.2 secs

     total energy              =    -329.25676759 Ry
     estimated scf accuracy    <       0.00001194 Ry

     total magnetization       =     2.59 Bohr mag/cell
     absolute magnetization    =     2.70 Bohr mag/cell

     iteration #  9     ecut=    90.00 Ry     beta= 0.20
     Davidson diagonalization with overlap
     ethr =  7.47E-08,  avg # of iterations =  1.7

     negative rho (up, down):  0.000E+00 3.204E-05

     total cpu time spent up to now is       10.0 secs

     total energy              =    -329.25677419 Ry
     estimated scf accuracy    <       0.00000098 Ry

     total magnetization       =     2.58 Bohr mag/cell
     absolute magnetization    =     2.69 Bohr mag/cell

     iteration # 10     ecut=    90.00 Ry     beta= 0.20
     Davidson diagonalization with overlap
     ethr =  6.11E-09,  avg # of iterations =  2.7

     negative rho (up, down):  0.000E+00 3.205E-05

     total cpu time spent up to now is       10.9 secs

     total energy              =    -329.25677513 Ry
     estimated scf accuracy    <       0.00000016 Ry

     total magnetization       =     2.58 Bohr mag/cell
     absolute magnetization    =     2.69 Bohr mag/cell

     iteration # 11     ecut=    90.00 Ry     beta= 0.20
     Davidson diagonalization with overlap
     ethr =  1.01E-09,  avg # of iterations =  2.7

     negative rho (up, down):  0.000E+00 3.199E-05

     total cpu time spent up to now is       11.8 secs

     total energy              =    -329.25677566 Ry
     estimated scf accuracy    <       0.00000004 Ry

     total magnetization       =     2.58 Bohr mag/cell
     absolute magnetization    =     2.69 Bohr mag/cell

     iteration # 12     ecut=    90.00 Ry     beta= 0.20
     Davidson diagonalization with overlap
     ethr =  2.71E-10,  avg # of iterations =  2.9

     negative rho (up, down):  0.000E+00 3.202E-05

     Magnetic moment per site:
     atom:    1    charge:   14.6107    magn:    2.6259    constr:    0.0000

     total cpu time spent up to now is       12.8 secs

     End of self-consistent calculation

     Number of k-points >= 100: set verbosity='high' to print the bands.

     the Fermi energy is    17.0921 ev

!    total energy              =    -329.25677655 Ry

     total all-electron energy =     -2545.553312 Ry
     estimated scf accuracy    <          3.6E-09 Ry
     smearing contrib. (-TS)   =      -0.00100684 Ry
     internal energy E=F+TS    =    -329.25576972 Ry

     The total energy is F=E-TS. E is the sum of the following terms:
     one-electron contribution =    -115.57016477 Ry
     hartree contribution      =      67.66846329 Ry
     xc contribution           =     -34.83632787 Ry
     ewald contribution        =    -170.36738044 Ry
     one-center paw contrib.   =     -76.15035992 Ry

     total magnetization       =     2.58 Bohr mag/cell
     absolute magnetization    =     2.69 Bohr mag/cell

     convergence has been achieved in  12 iterations

     negative rho (up, down):  0.000E+00 3.202E-05

     Forces acting on atoms (cartesian axes, Ry/au):

     atom    1 type  1   force =     0.00000000    0.00000000    0.00000000

     Total force =     0.000000     Total SCF correction =     0.000012


     Computing stress (Cartesian axis) and pressure


     negative rho (up, down):  0.000E+00 3.202E-05
          total   stress  (Ry/bohr**3)                   (kbar)     P=       -5.48
  -0.00003756  -0.00000024  -0.00000015           -5.52       -0.04       -0.02
  -0.00000024  -0.00003701  -0.00000013           -0.04       -5.44       -0.02
  -0.00000015  -0.00000013  -0.00003715           -0.02       -0.02       -5.46


     BFGS Geometry Optimization
     Energy error            =      0.0E+00
     Gradient error          =      0.0E+00
     Cell gradient error     =      3.8E-05


     number of scf cycles    =   1
     number of bfgs steps    =   0

     enthalpy new            =    -329.2567765516 Ry

     new trust radius        =       0.0016978792 bohr
     new conv_thr            =       0.0000000100 Ry

     new unit-cell volume =     81.52033 a.u.^3 (    12.08007 Ang^3 )
     density =      7.67651 g/cm^3

CELL_PARAMETERS (angstrom)
   2.575478771  -0.000015515  -0.000009878
   1.287725950   2.230452648  -0.000012341
   1.287726842   0.743472065   2.102883827

ATOMIC_POSITIONS (angstrom)
Fe            0.0000000000        0.0000000000        0.0000000000



     Writing output data file ./pwscf.save/
     NEW-OLD atomic charge density approx. for the potential

     Check: negative core charge=   -0.000010

     negative rho (up, down):  0.000E+00 3.200E-05
     extrapolated charge   15.95523, renormalised to   16.00000
     Generating pointlists ...

     total cpu time spent up to now is       15.1 secs

     Self-consistent Calculation

     iteration #  1     ecut=    90.00 Ry     beta= 0.20
     Davidson diagonalization with overlap
     ethr =  1.00E-06,  avg # of iterations =  4.8

     negative rho (up, down):  0.000E+00 3.166E-05

     total cpu time spent up to now is       16.3 secs

     total energy              =    -329.25372724 Ry
     estimated scf accuracy    <       0.00476148 Ry

     total magnetization       =     2.57 Bohr mag/cell
     absolute magnetization    =     2.69 Bohr mag/cell

     iteration #  2     ecut=    90.00 Ry     beta= 0.20
     Davidson diagonalization with overlap
     ethr =  2.98E-05,  avg # of iterations =  2.0

     negative rho (up, down):  0.000E+00 3.170E-05

     total cpu time spent up to now is       17.2 secs

     total energy              =    -329.25687670 Ry
     estimated scf accuracy    <       0.00237298 Ry

     total magnetization       =     2.57 Bohr mag/cell
     absolute magnetization    =     2.68 Bohr mag/cell

     iteration #  3     ecut=    90.00 Ry     beta= 0.20
     Davidson diagonalization with overlap
     ethr =  1.48E-05,  avg # of iterations =  1.0

     negative rho (up, down):  0.000E+00 3.180E-05

     total cpu time spent up to now is       18.1 secs

     total energy              =    -329.25671310 Ry
     estimated scf accuracy    <       0.00084423 Ry

     total magnetization       =     2.57 Bohr mag/cell
     absolute magnetization    =     2.68 Bohr mag/cell

     iteration #  4     ecut=    90.00 Ry     beta= 0.20
     Davidson diagonalization with overlap
     ethr =  5.28E-06,  avg # of iterations =  1.3

     negative rho (up, down):  0.000E+00 3.184E-05

     total cpu time spent up to now is       18.9 secs

     total energy              =    -329.25674748 Ry
     estimated scf accuracy    <       0.00007677 Ry

     total magnetization       =     2.57 Bohr mag/cell
     absolute magnetization    =     2.68 Bohr mag/cell

     iteration #  5     ecut=    90.00 Ry     beta= 0.20
     Davidson diagonalization with overlap
     ethr =  4.80E-07,  avg # of iterations =  2.0

     negative rho (up, down):  0.000E+00 3.176E-05

     total cpu time spent up to now is       19.8 secs

     total energy              =    -329.25684020 Ry
     estimated scf accuracy    <       0.00005005 Ry

     total magnetization       =     2.57 Bohr mag/cell
     absolute magnetization    =     2.68 Bohr mag/cell

     iteration #  6     ecut=    90.00 Ry     beta= 0.20
     Davidson diagonalization with overlap
     ethr =  3.13E-07,  avg # of iterations =  2.0

     negative rho (up, down):  0.000E+00 3.162E-05

     total cpu time spent up to now is       20.8 secs

     total energy              =    -329.25677004 Ry
     estimated scf accuracy    <       0.00033475 Ry

     total magnetization       =     2.57 Bohr mag/cell
     absolute magnetization    =     2.68 Bohr mag/cell

     iteration #  7     ecut=    90.00 Ry     beta= 0.20
     Davidson diagonalization with overlap
     ethr =  3.13E-07,  avg # of iterations =  2.0

     negative rho (up, down):  0.000E+00 3.100E-05

     total cpu time spent up to now is       21.7 secs

     total energy              =    -329.25676175 Ry
     estimated scf accuracy    <       0.00004628 Ry

     total magnetization       =     2.57 Bohr mag/cell
     absolute magnetization    =     2.68 Bohr mag/cell

     iteration #  8     ecut=    90.00 Ry     beta= 0.20
     Davidson diagonalization with overlap
     ethr =  2.89E-07,  avg # of iterations =  5.0

     negative rho (up, down):  0.000E+00 3.125E-05

     total cpu time spent up to now is       22.9 secs

     total energy              =    -329.25681812 Ry
     estimated scf accuracy    <       0.00102490 Ry

     total magnetization       =     2.56 Bohr mag/cell
     absolute magnetization    =     2.67 Bohr mag/cell

     iteration #  9     ecut=    90.00 Ry     beta= 0.20
     Davidson diagonalization with overlap
     ethr =  2.89E-07,  avg # of iterations =  2.0

     negative rho (up, down):  0.000E+00 3.127E-05

     total cpu time spent up to now is       23.8 secs

     total energy              =    -329.25679290 Ry
     estimated scf accuracy    <       0.00031701 Ry

     total magnetization       =     2.56 Bohr mag/cell
     absolute magnetization    =     2.67 Bohr mag/cell

     iteration # 10     ecut=    90.00 Ry     beta= 0.20
     Davidson diagonalization with overlap
     ethr =  2.89E-07,  avg # of iterations =  2.0

     negative rho (up, down):  0.000E+00 3.139E-05

     total cpu time spent up to now is       24.7 secs

     total energy              =    -329.25676613 Ry
     estimated scf accuracy    <       0.00009951 Ry

     total magnetization       =     2.56 Bohr mag/cell
     absolute magnetization    =     2.67 Bohr mag/cell

     iteration # 11     ecut=    90.00 Ry     beta= 0.20
     Davidson diagonalization with overlap
     ethr =  2.89E-07,  avg # of iterations =  2.0

     negative rho (up, down):  0.000E+00 3.142E-05

     total cpu time spent up to now is       25.7 secs

     total energy              =    -329.25678292 Ry
     estimated scf accuracy    <       0.00000058 Ry

     total magnetization       =     2.56 Bohr mag/cell
     absolute magnetization    =     2.67 Bohr mag/cell

     iteration # 12     ecut=    90.00 Ry     beta= 0.20
     Davidson diagonalization with overlap
     ethr =  3.62E-09,  avg # of iterations =  4.8

     negative rho (up, down):  0.000E+00 3.140E-05

     total cpu time spent up to now is       26.8 secs

     total energy              =    -329.25678383 Ry
     estimated scf accuracy    <       0.00000002 Ry

     total magnetization       =     2.56 Bohr mag/cell
     absolute magnetization    =     2.67 Bohr mag/cell

     iteration # 13     ecut=    90.00 Ry     beta= 0.20
     Davidson diagonalization with overlap
     ethr =  1.52E-10,  avg # of iterations =  3.4

     negative rho (up, down):  0.000E+00 3.145E-05

     total cpu time spent up to now is       27.8 secs

     total energy              =    -329.25678383 Ry
     estimated scf accuracy    <       0.00000003 Ry

     total magnetization       =     2.56 Bohr mag/cell
     absolute magnetization    =     2.67 Bohr mag/cell

     iteration # 14     ecut=    90.00 Ry     beta= 0.20
     Davidson diagonalization with overlap
     ethr =  1.52E-10,  avg # of iterations =  1.1

     negative rho (up, down):  0.000E+00 3.147E-05

     Magnetic moment per site:
     atom:    1    charge:   14.6147    magn:    2.6083    constr:    0.0000

     total cpu time spent up to now is       28.6 secs

     End of self-consistent calculation

     Number of k-points >= 100: set verbosity='high' to print the bands.

     the Fermi energy is    17.1489 ev

!    total energy              =    -329.25678383 Ry

     total all-electron energy =     -2545.553319 Ry
     estimated scf accuracy    <          5.6E-09 Ry
     smearing contrib. (-TS)   =      -0.00098315 Ry
     internal energy E=F+TS    =    -329.25580069 Ry

     The total energy is F=E-TS. E is the sum of the following terms:
     one-electron contribution =    -115.31803009 Ry
     hartree contribution      =      67.57505236 Ry
     xc contribution           =     -34.83628884 Ry
     ewald contribution        =    -170.52613237 Ry
     one-center paw contrib.   =     -76.15040175 Ry

     total magnetization       =     2.56 Bohr mag/cell
     absolute magnetization    =     2.67 Bohr mag/cell

     convergence has been achieved in  14 iterations

     negative rho (up, down):  0.000E+00 3.147E-05

     Forces acting on atoms (cartesian axes, Ry/au):

     atom    1 type  1   force =     0.00000000    0.00000000    0.00000000

     Total force =     0.000000     Total SCF correction =     0.000001


     Computing stress (Cartesian axis) and pressure


     negative rho (up, down):  0.000E+00 3.147E-05
          total   stress  (Ry/bohr**3)                   (kbar)     P=       -4.78
  -0.00003259  -0.00000005  -0.00000004           -4.79       -0.01       -0.01
  -0.00000005  -0.00003244  -0.00000002           -0.01       -4.77       -0.00
  -0.00000004  -0.00000002  -0.00003250           -0.01       -0.00       -4.78

     Energy error            =      7.3E-06
     Gradient error          =      0.0E+00
     Cell gradient error     =      3.3E-05


     number of scf cycles    =   2
     number of bfgs steps    =   1

     enthalpy old            =    -329.2567765516 Ry
     enthalpy new            =    -329.2567838332 Ry

     CASE: enthalpy_new < enthalpy_old


     WARNING: bfgs curvature condition failed, Theta= 0.918
     new trust radius        =       0.0025456535 bohr
     new conv_thr            =            1.0E-10 Ry

     new unit-cell volume =     81.17711 a.u.^3 (    12.02921 Ang^3 )
     density =      7.70897 g/cm^3

CELL_PARAMETERS (angstrom)
   2.571848050  -0.000022743  -0.000015577
   1.285904329   2.227322099  -0.000017799
   1.285904741   0.742423680   2.099926601

ATOMIC_POSITIONS (angstrom)
Fe            0.0000000000        0.0000000000        0.0000000000



     Writing output data file ./pwscf.save/
     NEW-OLD atomic charge density approx. for the potential

     Check: negative core charge=   -0.000010

     negative rho (up, down):  0.000E+00 3.144E-05
     extrapolated charge   15.93235, renormalised to   16.00000
     Generating pointlists ...

     total cpu time spent up to now is       31.1 secs

     Self-consistent Calculation

     iteration #  1     ecut=    90.00 Ry     beta= 0.20
     Davidson diagonalization with overlap
     ethr =  1.00E-06,  avg # of iterations =  5.4

     negative rho (up, down):  0.000E+00 3.095E-05

     total cpu time spent up to now is       32.4 secs

     total energy              =    -329.24979891 Ry
     estimated scf accuracy    <       0.01091649 Ry

     total magnetization       =     2.55 Bohr mag/cell
     absolute magnetization    =     2.67 Bohr mag/cell

     iteration #  2     ecut=    90.00 Ry     beta= 0.20
     Davidson diagonalization with overlap
     ethr =  6.82E-05,  avg # of iterations =  2.0

     negative rho (up, down):  0.000E+00 3.099E-05

     total cpu time spent up to now is       33.3 secs

     total energy              =    -329.25699674 Ry
     estimated scf accuracy    <       0.00546273 Ry

     total magnetization       =     2.54 Bohr mag/cell
     absolute magnetization    =     2.65 Bohr mag/cell

     iteration #  3     ecut=    90.00 Ry     beta= 0.20
     Davidson diagonalization with overlap
     ethr =  3.41E-05,  avg # of iterations =  1.0

     negative rho (up, down):  0.000E+00 3.113E-05

     total cpu time spent up to now is       34.2 secs

     total energy              =    -329.25662449 Ry
     estimated scf accuracy    <       0.00192936 Ry

     total magnetization       =     2.55 Bohr mag/cell
     absolute magnetization    =     2.65 Bohr mag/cell

     iteration #  4     ecut=    90.00 Ry     beta= 0.20
     Davidson diagonalization with overlap
     ethr =  1.21E-05,  avg # of iterations =  1.3

     negative rho (up, down):  0.000E+00 3.118E-05

     total cpu time spent up to now is       35.1 secs

     total energy              =    -329.25671423 Ry
     estimated scf accuracy    <       0.00016822 Ry

     total magnetization       =     2.55 Bohr mag/cell
     absolute magnetization    =     2.66 Bohr mag/cell

     iteration #  5     ecut=    90.00 Ry     beta= 0.20
     Davidson diagonalization with overlap
     ethr =  1.05E-06,  avg # of iterations =  2.0

     negative rho (up, down):  0.000E+00 3.107E-05

     total cpu time spent up to now is       36.0 secs

     total energy              =    -329.25691871 Ry
     estimated scf accuracy    <       0.00009001 Ry

     total magnetization       =     2.55 Bohr mag/cell
     absolute magnetization    =     2.66 Bohr mag/cell

     iteration #  6     ecut=    90.00 Ry     beta= 0.20
     Davidson diagonalization with overlap
     ethr =  5.63E-07,  avg # of iterations =  2.0

     negative rho (up, down):  0.000E+00 3.085E-05

     total cpu time spent up to now is       37.0 secs

     total energy              =    -329.25671968 Ry
     estimated scf accuracy    <       0.00081668 Ry

     total magnetization       =     2.54 Bohr mag/cell
     absolute magnetization    =     2.65 Bohr mag/cell

     iteration #  7     ecut=    90.00 Ry     beta= 0.20
     Davidson diagonalization with overlap
     ethr =  5.63E-07,  avg # of iterations =  2.0

     negative rho (up, down):  0.000E+00 3.054E-05

     total cpu time spent up to now is       38.0 secs

     total energy              =    -329.25675960 Ry
     estimated scf accuracy    <       0.00005194 Ry

     total magnetization       =     2.54 Bohr mag/cell
     absolute magnetization    =     2.65 Bohr mag/cell

     iteration #  8     ecut=    90.00 Ry     beta= 0.20
     Davidson diagonalization with overlap
     ethr =  3.25E-07,  avg # of iterations =  3.8

     negative rho (up, down):  0.000E+00 3.074E-05

     total cpu time spent up to now is       39.1 secs

     total energy              =    -329.25676626 Ry
     estimated scf accuracy    <       0.00011869 Ry

     total magnetization       =     2.54 Bohr mag/cell
     absolute magnetization    =     2.65 Bohr mag/cell

     iteration #  9     ecut=    90.00 Ry     beta= 0.20
     Davidson diagonalization with overlap
     ethr =  3.25E-07,  avg # of iterations =  2.0

     negative rho (up, down):  0.000E+00 3.045E-05

     total cpu time spent up to now is       40.0 secs

     total energy              =    -329.25679030 Ry
     estimated scf accuracy    <       0.00000154 Ry

     total magnetization       =     2.54 Bohr mag/cell
     absolute magnetization    =     2.65 Bohr mag/cell

     iteration # 10     ecut=    90.00 Ry     beta= 0.20
     Davidson diagonalization with overlap
     ethr =  9.63E-09,  avg # of iterations =  2.9

     negative rho (up, down):  0.000E+00 3.057E-05

     total cpu time spent up to now is       41.1 secs

     total energy              =    -329.25678711 Ry
     estimated scf accuracy    <       0.00002925 Ry

     total magnetization       =     2.53 Bohr mag/cell
     absolute magnetization    =     2.64 Bohr mag/cell

     iteration # 11     ecut=    90.00 Ry     beta= 0.20
     Davidson diagonalization with overlap
     ethr =  9.63E-09,  avg # of iterations =  4.0

     negative rho (up, down):  0.000E+00 3.062E-05

     total cpu time spent up to now is       42.2 secs

     total energy              =    -329.25679106 Ry
     estimated scf accuracy    <       0.00000051 Ry

     total magnetization       =     2.54 Bohr mag/cell
     absolute magnetization    =     2.65 Bohr mag/cell

     iteration # 12     ecut=    90.00 Ry     beta= 0.20
     Davidson diagonalization with overlap
     ethr =  3.19E-09,  avg # of iterations =  1.6

     negative rho (up, down):  0.000E+00 3.065E-05

     total cpu time spent up to now is       43.1 secs

     total energy              =    -329.25679105 Ry
     estimated scf accuracy    <       0.00000015 Ry

     total magnetization       =     2.54 Bohr mag/cell
     absolute magnetization    =     2.65 Bohr mag/cell

     iteration # 13     ecut=    90.00 Ry     beta= 0.20
     Davidson diagonalization with overlap
     ethr =  9.36E-10,  avg # of iterations =  2.0

     negative rho (up, down):  0.000E+00 3.064E-05

     total cpu time spent up to now is       44.0 secs

     total energy              =    -329.25679106 Ry
     estimated scf accuracy    <       0.00000004 Ry

     total magnetization       =     2.54 Bohr mag/cell
     absolute magnetization    =     2.65 Bohr mag/cell

     iteration # 14     ecut=    90.00 Ry     beta= 0.20
     Davidson diagonalization with overlap
     ethr =  2.25E-10,  avg # of iterations =  1.3

     negative rho (up, down):  0.000E+00 3.066E-05

     total cpu time spent up to now is       44.9 secs

     total energy              =    -329.25679105 Ry
     estimated scf accuracy    <       0.00000003 Ry

     total magnetization       =     2.54 Bohr mag/cell
     absolute magnetization    =     2.65 Bohr mag/cell

     iteration # 15     ecut=    90.00 Ry     beta= 0.20
     Davidson diagonalization with overlap
     ethr =  1.64E-10,  avg # of iterations =  1.9

     negative rho (up, down):  0.000E+00 3.066E-05

     total cpu time spent up to now is       45.8 secs

     total energy              =    -329.25679105 Ry
     estimated scf accuracy    <          3.0E-09 Ry

     total magnetization       =     2.54 Bohr mag/cell
     absolute magnetization    =     2.65 Bohr mag/cell

     iteration # 16     ecut=    90.00 Ry     beta= 0.20
     Davidson diagonalization with overlap
     ethr =  1.86E-11,  avg # of iterations =  3.7

     negative rho (up, down):  0.000E+00 3.066E-05

     total cpu time spent up to now is       46.8 secs

     total energy              =    -329.25679105 Ry
     estimated scf accuracy    <          2.0E-09 Ry

     total magnetization       =     2.54 Bohr mag/cell
     absolute magnetization    =     2.65 Bohr mag/cell

     iteration # 17     ecut=    90.00 Ry     beta= 0.20
     Davidson diagonalization with overlap
     ethr =  1.25E-11,  avg # of iterations =  2.1

     negative rho (up, down):  0.000E+00 3.066E-05

     total cpu time spent up to now is       47.8 secs

     total energy              =    -329.25679105 Ry
     estimated scf accuracy    <          5.0E-10 Ry

     total magnetization       =     2.54 Bohr mag/cell
     absolute magnetization    =     2.65 Bohr mag/cell

     iteration # 18     ecut=    90.00 Ry     beta= 0.20
     Davidson diagonalization with overlap
     ethr =  3.10E-12,  avg # of iterations =  2.0

     negative rho (up, down):  0.000E+00 3.066E-05

     total cpu time spent up to now is       48.7 secs

     total energy              =    -329.25679105 Ry
     estimated scf accuracy    <          8.8E-10 Ry

     total magnetization       =     2.54 Bohr mag/cell
     absolute magnetization    =     2.65 Bohr mag/cell

     iteration # 19     ecut=    90.00 Ry     beta= 0.20
     Davidson diagonalization with overlap
     ethr =  3.10E-12,  avg # of iterations =  1.0

     negative rho (up, down):  0.000E+00 3.066E-05

     total cpu time spent up to now is       49.6 secs

     total energy              =    -329.25679106 Ry
     estimated scf accuracy    <          9.2E-10 Ry

     total magnetization       =     2.54 Bohr mag/cell
     absolute magnetization    =     2.65 Bohr mag/cell

     iteration # 20     ecut=    90.00 Ry     beta= 0.20
     Davidson diagonalization with overlap
     ethr =  3.10E-12,  avg # of iterations =  3.3

     negative rho (up, down):  0.000E+00 3.066E-05

     total cpu time spent up to now is       50.7 secs

     total energy              =    -329.25679106 Ry
     estimated scf accuracy    <          4.5E-09 Ry

     total magnetization       =     2.54 Bohr mag/cell
     absolute magnetization    =     2.65 Bohr mag/cell

     iteration # 21     ecut=    90.00 Ry     beta= 0.20
     Davidson diagonalization with overlap
     ethr =  3.10E-12,  avg # of iterations =  1.6

     negative rho (up, down):  0.000E+00 3.066E-05

     total cpu time spent up to now is       51.6 secs

     total energy              =    -329.25679105 Ry
     estimated scf accuracy    <          2.3E-09 Ry

     total magnetization       =     2.54 Bohr mag/cell
     absolute magnetization    =     2.65 Bohr mag/cell

     iteration # 22     ecut=    90.00 Ry     beta= 0.20
     Davidson diagonalization with overlap
     ethr =  3.10E-12,  avg # of iterations =  1.9

     negative rho (up, down):  0.000E+00 3.066E-05

     total cpu time spent up to now is       52.5 secs

     total energy              =    -329.25679105 Ry
     estimated scf accuracy    <          7.1E-10 Ry

     total magnetization       =     2.54 Bohr mag/cell
     absolute magnetization    =     2.65 Bohr mag/cell

     iteration # 23     ecut=    90.00 Ry     beta= 0.20
     Davidson diagonalization with overlap
     ethr =  3.10E-12,  avg # of iterations =  1.8

     negative rho (up, down):  0.000E+00 3.066E-05

     Magnetic moment per site:
     atom:    1    charge:   14.6207    magn:    2.5829    constr:    0.0000

     total cpu time spent up to now is       53.4 secs

     End of self-consistent calculation

     Number of k-points >= 100: set verbosity='high' to print the bands.

     the Fermi energy is    17.2342 ev

!    total energy              =    -329.25679105 Ry

     total all-electron energy =     -2545.553327 Ry
     estimated scf accuracy    <          9.9E-11 Ry
     smearing contrib. (-TS)   =      -0.00095175 Ry
     internal energy E=F+TS    =    -329.25583931 Ry

     The total energy is F=E-TS. E is the sum of the following terms:
     one-electron contribution =    -114.93746461 Ry
     hartree contribution      =      67.43476199 Ry
     xc contribution           =     -34.83652472 Ry
     ewald contribution        =    -170.76612414 Ry
     one-center paw contrib.   =     -76.15048783 Ry

     total magnetization       =     2.54 Bohr mag/cell
     absolute magnetization    =     2.65 Bohr mag/cell

     convergence has been achieved in  23 iterations

     negative rho (up, down):  0.000E+00 3.066E-05

     Forces acting on atoms (cartesian axes, Ry/au):

     atom    1 type  1   force =     0.00000000    0.00000000    0.00000000

     Total force =     0.000000     Total SCF correction =     0.000000


     Computing stress (Cartesian axis) and pressure


     negative rho (up, down):  0.000E+00 3.066E-05
          total   stress  (Ry/bohr**3)                   (kbar)     P=       -2.14
  -0.00001469  -0.00000009  -0.00000006           -2.16       -0.01       -0.01
  -0.00000009  -0.00001445  -0.00000003           -0.01       -2.13       -0.00
  -0.00000006  -0.00000003  -0.00001453           -0.01       -0.00       -2.14

     Energy error            =      7.2E-06
     Gradient error          =      0.0E+00
     Cell gradient error     =      1.5E-05


     number of scf cycles    =   3
     number of bfgs steps    =   2

     enthalpy old            =    -329.2567838332 Ry
     enthalpy new            =    -329.2567910536 Ry

     CASE: enthalpy_new < enthalpy_old

     new trust radius        =       0.0020604228 bohr
     new conv_thr            =            1.0E-10 Ry

     new unit-cell volume =     80.90093 a.u.^3 (    11.98828 Ang^3 )
     density =      7.73529 g/cm^3

CELL_PARAMETERS (angstrom)
   2.568907371  -0.000036496  -0.000025318
   1.284422079   2.224800344  -0.000026975
   1.284422478   0.741574452   2.097539914

ATOMIC_POSITIONS (angstrom)
Fe            0.0000000000        0.0000000000        0.0000000000



     Writing output data file ./pwscf.save/
     NEW-OLD atomic charge density approx. for the potential

     Check: negative core charge=   -0.000010

     negative rho (up, down):  0.000E+00 3.064E-05
     extrapolated charge   15.94538, renormalised to   16.00000
     Generating pointlists ...

     total cpu time spent up to now is       55.9 secs

     Self-consistent Calculation

     iteration #  1     ecut=    90.00 Ry     beta= 0.20
     Davidson diagonalization with overlap
     ethr =  1.00E-06,  avg # of iterations =  5.3

     negative rho (up, down):  0.000E+00 3.027E-05

     total cpu time spent up to now is       57.2 secs

     total energy              =    -329.25225240 Ry
     estimated scf accuracy    <       0.00708441 Ry

     total magnetization       =     2.54 Bohr mag/cell
     absolute magnetization    =     2.65 Bohr mag/cell

     iteration #  2     ecut=    90.00 Ry     beta= 0.20
     Davidson diagonalization with overlap
     ethr =  4.43E-05,  avg # of iterations =  2.0

     negative rho (up, down):  0.000E+00 3.030E-05

     total cpu time spent up to now is       58.2 secs

     total energy              =    -329.25692665 Ry
     estimated scf accuracy    <       0.00355910 Ry

     total magnetization       =     2.52 Bohr mag/cell
     absolute magnetization    =     2.63 Bohr mag/cell

     iteration #  3     ecut=    90.00 Ry     beta= 0.20
     Davidson diagonalization with overlap
     ethr =  2.22E-05,  avg # of iterations =  1.0

     negative rho (up, down):  0.000E+00 3.040E-05

     total cpu time spent up to now is       59.0 secs

     total energy              =    -329.25670381 Ry
     estimated scf accuracy    <       0.00126031 Ry

     total magnetization       =     2.52 Bohr mag/cell
     absolute magnetization    =     2.63 Bohr mag/cell

     iteration #  4     ecut=    90.00 Ry     beta= 0.20
     Davidson diagonalization with overlap
     ethr =  7.88E-06,  avg # of iterations =  1.1

     negative rho (up, down):  0.000E+00 3.044E-05

     total cpu time spent up to now is       59.9 secs

     total energy              =    -329.25673904 Ry
     estimated scf accuracy    <       0.00014285 Ry

     total magnetization       =     2.52 Bohr mag/cell
     absolute magnetization    =     2.64 Bohr mag/cell

     iteration #  5     ecut=    90.00 Ry     beta= 0.20
     Davidson diagonalization with overlap
     ethr =  8.93E-07,  avg # of iterations =  2.0

     negative rho (up, down):  0.000E+00 3.035E-05

     total cpu time spent up to now is       60.9 secs

     total energy              =    -329.25687172 Ry
     estimated scf accuracy    <       0.00003256 Ry

     total magnetization       =     2.52 Bohr mag/cell
     absolute magnetization    =     2.64 Bohr mag/cell

     iteration #  6     ecut=    90.00 Ry     beta= 0.20
     Davidson diagonalization with overlap
     ethr =  2.03E-07,  avg # of iterations =  2.9

     negative rho (up, down):  0.000E+00 3.022E-05

     total cpu time spent up to now is       61.9 secs

     total energy              =    -329.25678671 Ry
     estimated scf accuracy    <       0.00061431 Ry

     total magnetization       =     2.52 Bohr mag/cell
     absolute magnetization    =     2.63 Bohr mag/cell

     iteration #  7     ecut=    90.00 Ry     beta= 0.20
     Davidson diagonalization with overlap
     ethr =  2.03E-07,  avg # of iterations =  2.0

     negative rho (up, down):  0.000E+00 2.977E-05

     total cpu time spent up to now is       62.9 secs

     total energy              =    -329.25672756 Ry
     estimated scf accuracy    <       0.00012572 Ry

     total magnetization       =     2.52 Bohr mag/cell
     absolute magnetization    =     2.63 Bohr mag/cell

     iteration #  8     ecut=    90.00 Ry     beta= 0.20
     Davidson diagonalization with overlap
     ethr =  2.03E-07,  avg # of iterations =  4.5

     negative rho (up, down):  0.000E+00 2.972E-05

     total cpu time spent up to now is       64.0 secs

     total energy              =    -329.25686699 Ry
     estimated scf accuracy    <       0.00019525 Ry

     total magnetization       =     2.51 Bohr mag/cell
     absolute magnetization    =     2.62 Bohr mag/cell

     iteration #  9     ecut=    90.00 Ry     beta= 0.20
     Davidson diagonalization with overlap
     ethr =  2.03E-07,  avg # of iterations =  1.3

     negative rho (up, down):  0.000E+00 2.973E-05

     total cpu time spent up to now is       64.9 secs

     total energy              =    -329.25685971 Ry
     estimated scf accuracy    <       0.00031989 Ry

     total magnetization       =     2.51 Bohr mag/cell
     absolute magnetization    =     2.62 Bohr mag/cell

     iteration # 10     ecut=    90.00 Ry     beta= 0.20
     Davidson diagonalization with overlap
     ethr =  2.03E-07,  avg # of iterations =  1.0

     negative rho (up, down):  0.000E+00 3.005E-05

     total cpu time spent up to now is       65.8 secs

     total energy              =    -329.25674413 Ry
     estimated scf accuracy    <       0.00028040 Ry

     total magnetization       =     2.51 Bohr mag/cell
     absolute magnetization    =     2.62 Bohr mag/cell

     iteration # 11     ecut=    90.00 Ry     beta= 0.20
     Davidson diagonalization with overlap
     ethr =  2.03E-07,  avg # of iterations =  2.0

     negative rho (up, down):  0.000E+00 3.012E-05

     total cpu time spent up to now is       66.8 secs

     total energy              =    -329.25679189 Ry
     estimated scf accuracy    <       0.00000025 Ry

     total magnetization       =     2.52 Bohr mag/cell
     absolute magnetization    =     2.63 Bohr mag/cell

     iteration # 12     ecut=    90.00 Ry     beta= 0.20
     Davidson diagonalization with overlap
     ethr =  1.59E-09,  avg # of iterations =  6.5

     negative rho (up, down):  0.000E+00 2.999E-05

     total cpu time spent up to now is       68.2 secs

     total energy              =    -329.25679262 Ry
     estimated scf accuracy    <       0.00000125 Ry

     total magnetization       =     2.52 Bohr mag/cell
     absolute magnetization    =     2.63 Bohr mag/cell

     iteration # 13     ecut=    90.00 Ry     beta= 0.20
     Davidson diagonalization with overlap
     ethr =  1.59E-09,  avg # of iterations =  3.7

     negative rho (up, down):  0.000E+00 3.000E-05

     total cpu time spent up to now is       69.3 secs

     total energy              =    -329.25679303 Ry
     estimated scf accuracy    <       0.00000027 Ry

     total magnetization       =     2.52 Bohr mag/cell
     absolute magnetization    =     2.63 Bohr mag/cell

     iteration # 14     ecut=    90.00 Ry     beta= 0.20
     Davidson diagonalization with overlap
     ethr =  1.59E-09,  avg # of iterations =  1.6

     negative rho (up, down):  0.000E+00 3.001E-05

     total cpu time spent up to now is       70.2 secs

     total energy              =    -329.25679306 Ry
     estimated scf accuracy    <       0.00000002 Ry

     total magnetization       =     2.52 Bohr mag/cell
     absolute magnetization    =     2.63 Bohr mag/cell

     iteration # 15     ecut=    90.00 Ry     beta= 0.20
     Davidson diagonalization with overlap
     ethr =  1.47E-10,  avg # of iterations =  1.6

     negative rho (up, down):  0.000E+00 3.002E-05

     total cpu time spent up to now is       71.1 secs

     total energy              =    -329.25679305 Ry
     estimated scf accuracy    <       0.00000001 Ry

     total magnetization       =     2.52 Bohr mag/cell
     absolute magnetization    =     2.63 Bohr mag/cell

     iteration # 16     ecut=    90.00 Ry     beta= 0.20
     Davidson diagonalization with overlap
     ethr =  6.27E-11,  avg # of iterations =  1.3

     negative rho (up, down):  0.000E+00 3.002E-05

     total cpu time spent up to now is       72.0 secs

     total energy              =    -329.25679305 Ry
     estimated scf accuracy    <          4.0E-09 Ry

     total magnetization       =     2.52 Bohr mag/cell
     absolute magnetization    =     2.63 Bohr mag/cell

     iteration # 17     ecut=    90.00 Ry     beta= 0.20
     Davidson diagonalization with overlap
     ethr =  2.51E-11,  avg # of iterations =  2.0

     negative rho (up, down):  0.000E+00 3.003E-05

     total cpu time spent up to now is       72.9 secs

     total energy              =    -329.25679305 Ry
     estimated scf accuracy    <          1.8E-10 Ry

     total magnetization       =     2.52 Bohr mag/cell
     absolute magnetization    =     2.63 Bohr mag/cell

     iteration # 18     ecut=    90.00 Ry     beta= 0.20
     Davidson diagonalization with overlap
     ethr =  1.10E-12,  avg # of iterations =  3.9

     negative rho (up, down):  0.000E+00 3.003E-05

     total cpu time spent up to now is       74.0 secs

     total energy              =    -329.25679305 Ry
     estimated scf accuracy    <          1.3E-10 Ry

     total magnetization       =     2.52 Bohr mag/cell
     absolute magnetization    =     2.63 Bohr mag/cell

     iteration # 19     ecut=    90.00 Ry     beta= 0.20
     Davidson diagonalization with overlap
     ethr =  7.91E-13,  avg # of iterations =  3.2

     negative rho (up, down):  0.000E+00 3.003E-05

     total cpu time spent up to now is       75.1 secs

     total energy              =    -329.25679305 Ry
     estimated scf accuracy    <          1.1E-10 Ry

     total magnetization       =     2.52 Bohr mag/cell
     absolute magnetization    =     2.63 Bohr mag/cell

     iteration # 20     ecut=    90.00 Ry     beta= 0.20
     Davidson diagonalization with overlap
     ethr =  6.85E-13,  avg # of iterations =  1.0

     negative rho (up, down):  0.000E+00 3.003E-05

     Magnetic moment per site:
     atom:    1    charge:   14.6256    magn:    2.5634    constr:    0.0000

     total cpu time spent up to now is       75.9 secs

     End of self-consistent calculation

     Number of k-points >= 100: set verbosity='high' to print the bands.

     the Fermi energy is    17.3030 ev

!    total energy              =    -329.25679305 Ry

     total all-electron energy =     -2545.553329 Ry
     estimated scf accuracy    <          2.9E-11 Ry
     smearing contrib. (-TS)   =      -0.00092858 Ry
     internal energy E=F+TS    =    -329.25586447 Ry

     The total energy is F=E-TS. E is the sum of the following terms:
     one-electron contribution =    -114.62916235 Ry
     hartree contribution      =      67.32082907 Ry
     xc contribution           =     -34.83674600 Ry
     ewald contribution        =    -170.96022428 Ry
     one-center paw contrib.   =     -76.15056093 Ry

     total magnetization       =     2.52 Bohr mag/cell
     absolute magnetization    =     2.63 Bohr mag/cell

     convergence has been achieved in  20 iterations

     negative rho (up, down):  0.000E+00 3.003E-05

     Forces acting on atoms (cartesian axes, Ry/au):

     atom    1 type  1   force =     0.00000000    0.00000000    0.00000000

     Total force =     0.000000     Total SCF correction =     0.000000


     Computing stress (Cartesian axis) and pressure


     negative rho (up, down):  0.000E+00 3.003E-05
          total   stress  (Ry/bohr**3)                   (kbar)     P=        0.04
  -0.00000001  -0.00000016  -0.00000011           -0.00       -0.02       -0.02
  -0.00000016   0.00000043  -0.00000004           -0.02        0.06       -0.01
  -0.00000011  -0.00000004   0.00000029           -0.02       -0.01        0.04

     Energy error            =      2.0E-06
     Gradient error          =      0.0E+00
     Cell gradient error     =      4.3E-07


     bfgs converged in   4 scf cycles and   3 bfgs steps
     (criteria: energy <  1.0E-05 Ry, force <  1.0E-04Ry/Bohr, cell <  1.0E-01kbar)

     End of BFGS Geometry Optimization

     Final enthalpy =    -329.2567930503 Ry

     File ./pwscf.bfgs deleted, as requested
Begin final coordinates
     new unit-cell volume =     80.90093 a.u.^3 (    11.98828 Ang^3 )
     density =      7.73529 g/cm^3

CELL_PARAMETERS (angstrom)
   2.568907371  -0.000036496  -0.000025318
   1.284422079   2.224800344  -0.000026975
   1.284422478   0.741574452   2.097539914

ATOMIC_POSITIONS (angstrom)
Fe            0.0000000000        0.0000000000        0.0000000000
End final coordinates



     Writing output data file ./pwscf.save/

     Final scf calculation at the relaxed structure.
     The G-vectors are recalculated for the final unit cell
     Results may differ from those at the preceding step.

     Parallelization info
     --------------------
     sticks:   dense  smooth     PW     G-vecs:    dense   smooth      PW
     Min         439     145     46                12112     2343     420
     Max         440     146     47                12115     2347     423
     Sum        1759     583    187                48455     9377    1687



     bravais-lattice index     =            0
     lattice parameter (alat)  =       4.8715  a.u.
     unit-cell volume          =      80.9009 (a.u.)^3
     number of atoms/cell      =            1
     number of atomic types    =            1
     number of electrons       =        16.00
     number of Kohn-Sham states=           12
     kinetic-energy cutoff     =      90.0000  Ry
     charge density cutoff     =    1080.0000  Ry
     scf convergence threshold =      1.0E-10
     mixing beta               =       0.2000
     number of iterations used =            8  plain     mixing
     press convergence thresh. =      1.0E-01
     Exchange-correlation= SLA  PW   PBX  PBC
                           (   1   4   3   4   0   0   0)

     celldm(1)=   4.871523  celldm(2)=   0.000000  celldm(3)=   0.000000
     celldm(4)=   0.000000  celldm(5)=   0.000000  celldm(6)=   0.000000

     crystal axes: (cart. coord. in units of alat)
               a(1) = (   0.996512  -0.000014  -0.000010 )  
               a(2) = (   0.498244   0.863028  -0.000010 )  
               a(3) = (   0.498244   0.287666   0.813663 )  

     reciprocal axes: (cart. coord. in units 2 pi/alat)
               b(1) = (  1.003488 -0.579339 -0.409661 )  
               b(2) = (  0.000012  1.158698 -0.409659 )  
               b(3) = (  0.000012  0.000008  1.229001 )  


     PseudoPot. # 1 for Fe read from file:
     /opt/QEpot/SSSP_precision_pseudos/Fe.pbe-spn-kjpaw_psl.0.2.1.UPF
     MD5 check sum: e86618425769142926afa95317d90200
     Pseudo is Projector augmented-wave + core cor, Zval = 16.0
     Generated using "atomic" code by A. Dal Corso  v.5.0.99 svn rev. 10869
     Shape of augmentation charge: PSQ
     Using radial grid of 1191 points,  6 beta functions with: 
                l(1) =   0
                l(2) =   0
                l(3) =   1
                l(4) =   1
                l(5) =   2
                l(6) =   2
     Q(r) pseudized with 0 coefficients 


     atomic species   valence    mass     pseudopotential
        Fe            16.00    55.84500     Fe( 1.00)

     Starting magnetic structure 
     atomic species   magnetization
        Fe           0.175

     No symmetry found



   Cartesian axes

     site n.     atom                  positions (alat units)
         1           Fe  tau(   1) = (   0.0000000   0.0000000   0.0000000  )

     number of k points=    63  Gaussian smearing, width (Ry)=  0.0100
                       cart. coord. in units 2pi/alat
        k(    1) = (   0.0000000   0.0000000   0.0000000), wk =   0.0080000
        k(    2) = (   0.0000024   0.0000016   0.2458001), wk =   0.0160000
        k(    3) = (   0.0000048   0.0000032   0.4916002), wk =   0.0160000
        k(    4) = (   0.0000025   0.2317396  -0.0819319), wk =   0.0160000
        k(    5) = (   0.0000049   0.2317412   0.1638682), wk =   0.0160000
        k(    6) = (   0.0000073   0.2317428   0.4096684), wk =   0.0160000
        k(    7) = (  -0.0000024   0.2317365  -0.5735321), wk =   0.0160000
        k(    8) = (   0.0000001   0.2317381  -0.3277320), wk =   0.0160000
        k(    9) = (   0.0000050   0.4634793  -0.1638638), wk =   0.0160000
        k(   10) = (   0.0000074   0.4634809   0.0819364), wk =   0.0160000
        k(   11) = (   0.0000098   0.4634824   0.3277365), wk =   0.0160000
        k(   12) = (   0.0000001   0.4634761  -0.6554640), wk =   0.0160000
        k(   13) = (   0.0000025   0.4634777  -0.4096639), wk =   0.0160000
        k(   14) = (   0.2006976  -0.1158678  -0.0819321), wk =   0.0160000
        k(   15) = (   0.2007000  -0.1158662   0.1638680), wk =   0.0160000
        k(   16) = (   0.2007024  -0.1158646   0.4096681), wk =   0.0160000
        k(   17) = (   0.2006928  -0.1158709  -0.5735324), wk =   0.0160000
        k(   18) = (   0.2006952  -0.1158693  -0.3277323), wk =   0.0160000
        k(   19) = (   0.2007001   0.1158719  -0.1638640), wk =   0.0160000
        k(   20) = (   0.2007025   0.1158735   0.0819361), wk =   0.0160000
        k(   21) = (   0.2007049   0.1158750   0.3277362), wk =   0.0160000
        k(   22) = (   0.2006952   0.1158687  -0.6554643), wk =   0.0160000
        k(   23) = (   0.2006977   0.1158703  -0.4096641), wk =   0.0160000
        k(   24) = (   0.2007026   0.3476115  -0.2457959), wk =   0.0160000
        k(   25) = (   0.2007050   0.3476131   0.0000042), wk =   0.0160000
        k(   26) = (   0.2007074   0.3476147   0.2458043), wk =   0.0160000
        k(   27) = (   0.2006977   0.3476084  -0.7373961), wk =   0.0160000
        k(   28) = (   0.2007001   0.3476099  -0.4915960), wk =   0.0160000
        k(   29) = (   0.2006926  -0.5793470   0.0819316), wk =   0.0160000
        k(   30) = (   0.2006950  -0.5793455   0.3277317), wk =   0.0160000
        k(   31) = (   0.2006975  -0.5793439   0.5735319), wk =   0.0160000
        k(   32) = (   0.2006878  -0.5793502  -0.4096686), wk =   0.0160000
        k(   33) = (   0.2006902  -0.5793486  -0.1638685), wk =   0.0160000
        k(   34) = (   0.2006951  -0.3476074  -0.0000003), wk =   0.0160000
        k(   35) = (   0.2006975  -0.3476058   0.2457999), wk =   0.0160000
        k(   36) = (   0.2007000  -0.3476042   0.4916000), wk =   0.0160000
        k(   37) = (   0.2006903  -0.3476106  -0.4916005), wk =   0.0160000
        k(   38) = (   0.2006927  -0.3476090  -0.2458004), wk =   0.0160000
        k(   39) = (   0.4013952  -0.2317355  -0.1638643), wk =   0.0160000
        k(   40) = (   0.4013976  -0.2317339   0.0819358), wk =   0.0160000
        k(   41) = (   0.4014000  -0.2317324   0.3277360), wk =   0.0160000
        k(   42) = (   0.4013903  -0.2317387  -0.6554645), wk =   0.0160000
        k(   43) = (   0.4013928  -0.2317371  -0.4096644), wk =   0.0160000
        k(   44) = (   0.4013977   0.0000041  -0.2457962), wk =   0.0160000
        k(   45) = (   0.4014001   0.0000057   0.0000040), wk =   0.0160000
        k(   46) = (   0.4014025   0.0000073   0.2458041), wk =   0.0160000
        k(   47) = (   0.4013928   0.0000010  -0.7373964), wk =   0.0160000
        k(   48) = (   0.4013953   0.0000025  -0.4915963), wk =   0.0160000
        k(   49) = (   0.4014002   0.2317438  -0.3277280), wk =   0.0160000
        k(   50) = (   0.4014026   0.2317453  -0.0819279), wk =   0.0160000
        k(   51) = (   0.4014050   0.2317469   0.1638722), wk =   0.0160000
        k(   52) = (   0.4013953   0.2317406  -0.8193283), wk =   0.0160000
        k(   53) = (   0.4013977   0.2317422  -0.5735282), wk =   0.0160000
        k(   54) = (   0.4013902  -0.6952148  -0.0000005), wk =   0.0160000
        k(   55) = (   0.4013926  -0.6952132   0.2457996), wk =   0.0160000
        k(   56) = (   0.4013951  -0.6952116   0.4915997), wk =   0.0160000
        k(   57) = (   0.4013854  -0.6952180  -0.4916007), wk =   0.0160000
        k(   58) = (   0.4013878  -0.6952164  -0.2458006), wk =   0.0160000
        k(   59) = (   0.4013927  -0.4634752  -0.0819324), wk =   0.0160000
        k(   60) = (   0.4013951  -0.4634736   0.1638677), wk =   0.0160000
        k(   61) = (   0.4013976  -0.4634720   0.4096678), wk =   0.0160000
        k(   62) = (   0.4013879  -0.4634783  -0.5735326), wk =   0.0160000
        k(   63) = (   0.4013903  -0.4634767  -0.3277325), wk =   0.0160000

     Dense  grid:    48455 G-vectors     FFT dimensions: (  54,  54,  54)

     Smooth grid:     9377 G-vectors     FFT dimensions: (  30,  30,  30)

     Estimated max dynamical RAM per process >      62.67 MB

     Estimated total dynamical RAM >     250.66 MB

     Check: negative core charge=   -0.000010
     Generating pointlists ...

     Initial potential from superposition of free atoms

     starting charge   15.99956, renormalised to   16.00000
     Starting wfcs are   13 randomized atomic wfcs
     Checking if some PAW data can be deallocated... 

     total cpu time spent up to now is       78.6 secs

     Self-consistent Calculation

     iteration #  1     ecut=    90.00 Ry     beta= 0.20
     Davidson diagonalization with overlap
     c_bands:  1 eigenvalues not converged
     c_bands:  1 eigenvalues not converged
     c_bands:  1 eigenvalues not converged
     c_bands:  1 eigenvalues not converged
     c_bands:  1 eigenvalues not converged
     c_bands:  2 eigenvalues not converged
     c_bands:  1 eigenvalues not converged
     c_bands:  1 eigenvalues not converged
     c_bands:  1 eigenvalues not converged
     c_bands:  1 eigenvalues not converged
     c_bands:  1 eigenvalues not converged
     c_bands:  1 eigenvalues not converged
     c_bands:  1 eigenvalues not converged
     c_bands:  1 eigenvalues not converged
     c_bands:  1 eigenvalues not converged
     c_bands:  1 eigenvalues not converged
     c_bands:  1 eigenvalues not converged
     c_bands:  1 eigenvalues not converged
     c_bands:  1 eigenvalues not converged
     c_bands:  1 eigenvalues not converged
     c_bands:  1 eigenvalues not converged
     c_bands:  1 eigenvalues not converged
     c_bands:  1 eigenvalues not converged
     c_bands:  1 eigenvalues not converged
     ethr =  1.00E-06,  avg # of iterations = 15.5

     total cpu time spent up to now is       81.3 secs

     total energy              =    -329.24568991 Ry
     estimated scf accuracy    <       0.01615443 Ry

     total magnetization       =     2.50 Bohr mag/cell
     absolute magnetization    =     2.52 Bohr mag/cell

     iteration #  2     ecut=    90.00 Ry     beta= 0.20
     Davidson diagonalization with overlap
     ethr =  1.01E-04,  avg # of iterations =  1.0

     total cpu time spent up to now is       82.2 secs

     total energy              =    -329.25095723 Ry
     estimated scf accuracy    <       0.00518137 Ry

     total magnetization       =     2.49 Bohr mag/cell
     absolute magnetization    =     2.52 Bohr mag/cell

     iteration #  3     ecut=    90.00 Ry     beta= 0.20
     Davidson diagonalization with overlap
     ethr =  3.24E-05,  avg # of iterations =  1.0

     negative rho (up, down):  0.000E+00 2.905E-05

     total cpu time spent up to now is       83.0 secs

     total energy              =    -329.25583550 Ry
     estimated scf accuracy    <       0.00250921 Ry

     total magnetization       =     2.49 Bohr mag/cell
     absolute magnetization    =     2.53 Bohr mag/cell

     iteration #  4     ecut=    90.00 Ry     beta= 0.20
     Davidson diagonalization with overlap
     ethr =  1.57E-05,  avg # of iterations =  2.0

     negative rho (up, down):  0.000E+00 2.878E-05

     total cpu time spent up to now is       83.9 secs

     total energy              =    -329.25658751 Ry
     estimated scf accuracy    <       0.00005137 Ry

     total magnetization       =     2.47 Bohr mag/cell
     absolute magnetization    =     2.57 Bohr mag/cell

     iteration #  5     ecut=    90.00 Ry     beta= 0.20
     Davidson diagonalization with overlap
     ethr =  3.21E-07,  avg # of iterations =  3.9

     negative rho (up, down):  0.000E+00 2.843E-05

     total cpu time spent up to now is       84.9 secs

     total energy              =    -329.25669632 Ry
     estimated scf accuracy    <       0.00004044 Ry

     total magnetization       =     2.48 Bohr mag/cell
     absolute magnetization    =     2.57 Bohr mag/cell

     iteration #  6     ecut=    90.00 Ry     beta= 0.20
     Davidson diagonalization with overlap
     ethr =  2.53E-07,  avg # of iterations =  2.3

     negative rho (up, down):  0.000E+00 2.868E-05

     total cpu time spent up to now is       85.9 secs

     total energy              =    -329.25675705 Ry
     estimated scf accuracy    <       0.00001620 Ry

     total magnetization       =     2.49 Bohr mag/cell
     absolute magnetization    =     2.60 Bohr mag/cell

     iteration #  7     ecut=    90.00 Ry     beta= 0.20
     Davidson diagonalization with overlap
     ethr =  1.01E-07,  avg # of iterations =  1.9

     negative rho (up, down):  0.000E+00 3.012E-05

     total cpu time spent up to now is       86.7 secs

     total energy              =    -329.25675270 Ry
     estimated scf accuracy    <       0.00000967 Ry

     total magnetization       =     2.50 Bohr mag/cell
     absolute magnetization    =     2.61 Bohr mag/cell

     iteration #  8     ecut=    90.00 Ry     beta= 0.20
     Davidson diagonalization with overlap
     ethr =  6.05E-08,  avg # of iterations =  1.6

     negative rho (up, down):  0.000E+00 2.997E-05

     total cpu time spent up to now is       87.6 secs

     total energy              =    -329.25676912 Ry
     estimated scf accuracy    <       0.00000392 Ry

     total magnetization       =     2.52 Bohr mag/cell
     absolute magnetization    =     2.63 Bohr mag/cell

     iteration #  9     ecut=    90.00 Ry     beta= 0.20
     Davidson diagonalization with overlap
     ethr =  2.45E-08,  avg # of iterations =  2.0

     negative rho (up, down):  0.000E+00 3.004E-05

     total cpu time spent up to now is       88.5 secs

     total energy              =    -329.25677123 Ry
     estimated scf accuracy    <       0.00000023 Ry

     total magnetization       =     2.52 Bohr mag/cell
     absolute magnetization    =     2.63 Bohr mag/cell

     iteration # 10     ecut=    90.00 Ry     beta= 0.20
     Davidson diagonalization with overlap
     ethr =  1.46E-09,  avg # of iterations =  3.1

     negative rho (up, down):  0.000E+00 3.005E-05

     total cpu time spent up to now is       89.4 secs

     total energy              =    -329.25677222 Ry
     estimated scf accuracy    <       0.00000002 Ry

     total magnetization       =     2.52 Bohr mag/cell
     absolute magnetization    =     2.63 Bohr mag/cell

     iteration # 11     ecut=    90.00 Ry     beta= 0.20
     Davidson diagonalization with overlap
     ethr =  9.89E-11,  avg # of iterations =  3.3

     negative rho (up, down):  0.000E+00 3.003E-05

     total cpu time spent up to now is       90.4 secs

     total energy              =    -329.25677299 Ry
     estimated scf accuracy    <       0.00000001 Ry

     total magnetization       =     2.52 Bohr mag/cell
     absolute magnetization    =     2.63 Bohr mag/cell

     iteration # 12     ecut=    90.00 Ry     beta= 0.20
     Davidson diagonalization with overlap
     ethr =  8.40E-11,  avg # of iterations =  2.0

     negative rho (up, down):  0.000E+00 3.004E-05

     total cpu time spent up to now is       91.3 secs

     total energy              =    -329.25677335 Ry
     estimated scf accuracy    <          6.6E-10 Ry

     total magnetization       =     2.52 Bohr mag/cell
     absolute magnetization    =     2.63 Bohr mag/cell

     iteration # 13     ecut=    90.00 Ry     beta= 0.20
     Davidson diagonalization with overlap
     ethr =  4.11E-12,  avg # of iterations =  4.2

     negative rho (up, down):  0.000E+00 3.005E-05

     total cpu time spent up to now is       92.4 secs

     total energy              =    -329.25677355 Ry
     estimated scf accuracy    <          5.5E-10 Ry

     total magnetization       =     2.52 Bohr mag/cell
     absolute magnetization    =     2.63 Bohr mag/cell

     iteration # 14     ecut=    90.00 Ry     beta= 0.20
     Davidson diagonalization with overlap
     ethr =  3.43E-12,  avg # of iterations =  1.6

     negative rho (up, down):  0.000E+00 3.007E-05

     Magnetic moment per site:
     atom:    1    charge:   14.6256    magn:    2.5633    constr:    0.0000

     total cpu time spent up to now is       93.3 secs

     End of self-consistent calculation

     Number of k-points >= 100: set verbosity='high' to print the bands.

     the Fermi energy is    17.3030 ev

!    total energy              =    -329.25677391 Ry

     total all-electron energy =     -2545.553309 Ry
     estimated scf accuracy    <          3.7E-11 Ry
     smearing contrib. (-TS)   =      -0.00092849 Ry
     internal energy E=F+TS    =    -329.25584542 Ry

     The total energy is F=E-TS. E is the sum of the following terms:
     one-electron contribution =    -114.62907766 Ry
     hartree contribution      =      67.32074586 Ry
     xc contribution           =     -34.83673178 Ry
     ewald contribution        =    -170.96022428 Ry
     one-center paw contrib.   =     -76.15055757 Ry

     total magnetization       =     2.52 Bohr mag/cell
     absolute magnetization    =     2.63 Bohr mag/cell

     convergence has been achieved in  14 iterations

     negative rho (up, down):  0.000E+00 3.007E-05

     Forces acting on atoms (cartesian axes, Ry/au):

     atom    1 type  1   force =     0.00000000    0.00000000    0.00000000

     Total force =     0.000000     Total SCF correction =     0.000005


     Computing stress (Cartesian axis) and pressure


     negative rho (up, down):  0.000E+00 3.007E-05
          total   stress  (Ry/bohr**3)                   (kbar)     P=       -0.54
  -0.00000392  -0.00000013  -0.00000015           -0.58       -0.02       -0.02
  -0.00000013  -0.00000345  -0.00000003           -0.02       -0.51       -0.00
  -0.00000015  -0.00000003  -0.00000360           -0.02       -0.00       -0.53


     init_run     :      2.14s CPU      2.27s WALL (       2 calls)
     electrons    :     79.01s CPU     82.00s WALL (       5 calls)
     update_pot   :      2.12s CPU      2.16s WALL (       3 calls)
     forces       :      2.25s CPU      2.27s WALL (       5 calls)
     stress       :      5.29s CPU      5.33s WALL (       5 calls)

     Called by init_run:
     wfcinit      :      0.42s CPU      0.43s WALL (       2 calls)
     potinit      :      0.61s CPU      0.66s WALL (       2 calls)
     hinit0       :      0.99s CPU      1.03s WALL (       2 calls)

     Called by electrons:
     c_bands      :     42.55s CPU     44.02s WALL (      84 calls)
     sum_band     :     16.34s CPU     16.78s WALL (      84 calls)
     v_of_rho     :      5.02s CPU      5.24s WALL (      88 calls)
     newd         :      4.94s CPU      5.06s WALL (      88 calls)
     PAW_pot      :     11.00s CPU     11.79s WALL (      91 calls)
     mix_rho      :      0.22s CPU      0.26s WALL (      84 calls)

     Called by c_bands:
     init_us_2    :      1.30s CPU      1.34s WALL (   23058 calls)
     cegterg      :     40.38s CPU     41.78s WALL (   10584 calls)

     Called by *egterg:
     cdiaghg      :      3.77s CPU      3.91s WALL (   37385 calls)
     h_psi        :     28.95s CPU     29.95s WALL (   38141 calls)
     s_psi        :      1.11s CPU      1.15s WALL (   38141 calls)
     g_psi        :      0.20s CPU      0.21s WALL (   27305 calls)

     Called by h_psi:
     h_psi:calbec :      1.53s CPU      1.60s WALL (   38141 calls)
     vloc_psi     :     26.14s CPU     27.04s WALL (   38141 calls)
     add_vuspsi   :      1.12s CPU      1.17s WALL (   38141 calls)

     General routines
     calbec       :      2.24s CPU      2.32s WALL (   52253 calls)
     fft          :      1.29s CPU      1.52s WALL (    2395 calls)
     ffts         :      0.03s CPU      0.03s WALL (     344 calls)
     fftw         :     28.41s CPU     29.39s WALL (  782884 calls)
     interpolate  :      0.12s CPU      0.15s WALL (     176 calls)

     Parallel routines
     fft_scatt_xy :      4.45s CPU      4.60s WALL (  785623 calls)
     fft_scatt_yz :      7.69s CPU      8.07s WALL (  785623 calls)

     PWSCF        :   1m31.52s CPU   1m34.79s WALL


   This run was terminated on:  23: 1:44  16May2022            

=------------------------------------------------------------------------------=
   JOB DONE.
=------------------------------------------------------------------------------=
Note: The following floating-point exceptions are signalling: IEEE_UNDERFLOW_FLAG IEEE_DENORMAL
Note: The following floating-point exceptions are signalling: IEEE_DENORMAL
Note: The following floating-point exceptions are signalling: IEEE_DENORMAL
Note: The following floating-point exceptions are signalling: IEEE_DENORMAL
