 # Fe4 Ni4
 
           8  atoms
           2  atom types
 
      0.000000000000       4.745828000000  xlo xhi
      0.000000000000       4.745828000000  ylo yhi
      0.000000000000       4.745828000000  zlo zhi
 
Masses
 
            1   55.84500000             # Fe
            2   58.69340000             # Ni
 
Atoms # atomic
 
         1    1        0.000000000000       0.000000000000       0.000000000000
         2    2        2.372914000000       2.372914000000       2.372914000000
         3    1        0.000000000000       2.372914000000       2.372914000000
         4    2        2.372914000000       0.000000000000       0.000000000000
         5    1        2.372914000000       2.372914000000       0.000000000000
         6    2        0.000000000000       0.000000000000       2.372914000000
         7    1        2.372914000000       0.000000000000       2.372914000000
         8    2        0.000000000000       2.372914000000       0.000000000000
