LAMMPS data file

1 atoms
1 atom types

0.0 2.30108370927847 xlo xhi
0.0 2.30108301985688 ylo yhi
0.0 2.3010833803077 zlo zhi
2.96359924580637e-05 -6.5175993943142e-05 4.37629592843886e-07 xy xz yz


Atoms

1 1 1.1505329696 1.1505490283 1.1505255057
