 # H
  
           1  atoms
           1  atom types
 
      0.000000000000       2.377803333333  xlo xhi
      0.000000000000       2.295985946472  ylo yhi
      0.000000000000       2.297922478085  zlo zhi
     -0.153328873998      -0.055153737898      -0.107571185299  xy xz yz
 
Masses
 
            1   1.00800000              # H
 
Atoms # atomic
 
         1    1        0.980314268329       0.092947432796       0.149850744946
