 # H
  
           1  atoms
           1  atom types
 
      0.000000000000       2.262748333333  xlo xhi
      0.000000000000       2.300558711928  ylo yhi
      0.000000000000       2.300076135996  zlo zhi
      0.049908145329      -0.020412154420       0.065531080970  xy xz yz
 
Masses
 
            1   1.00800000              # H
 
Atoms # atomic
 
         1    1        1.012851460808       1.263793140423       1.119808398884
