 # H
  
           1  atoms
           1  atom types
 
      0.000000000000       2.377803333333  xlo xhi
      0.000000000000       2.371399241319  ylo yhi
      0.000000000000       2.295805538497  zlo zhi
      0.174397047810      -0.096177890852      -0.122833027788  xy xz yz
 
Masses
 
            1   1.00800000              # H
 
Atoms # atomic
 
         1    1        1.215620939975       1.159087035394       1.048127490713
