 # H
  
           1  atoms
           1  atom types
 
      0.000000000000       2.186045000000  xlo xhi
      0.000000000000       2.179863359913  ylo yhi
      0.000000000000       2.179135577428  zlo zhi
     -0.164281691419      -0.050194110860      -0.166257115481  xy xz yz
 
Masses
 
            1   1.00800000              # H
 
Atoms # atomic
 
         1    1        0.913969687372       0.952098784258       0.170977933146
