 # H
  
           1  atoms
           1  atom types
 
      0.000000000000       2.416155000000  xlo xhi
      0.000000000000       2.299662908871  ylo yhi
      0.000000000000       2.298922437840  zlo zhi
      0.081312456390       0.097662358861      -0.021883748666  xy xz yz
 
Masses
 
            1   1.00800000              # H
 
Atoms # atomic
 
         1    1        1.387325029306       1.007826419358       1.187083867266
