 # H
  
           1  atoms
           1  atom types
 
      0.000000000000       2.416155000000  xlo xhi
      0.000000000000       2.411402278588  ylo yhi
      0.000000000000       2.300672733358  zlo zhi
     -0.151472884859      -0.026067330991       0.035870297421  xy xz yz
 
Masses
 
            1   1.00800000              # H
 
Atoms # atomic
 
         1    1        1.211620036542       1.268161751264       1.051941495361
