 # H
  
           1  atoms
           1  atom types
 
      0.000000000000       2.416155000000  xlo xhi
      0.000000000000       2.415163643940  ylo yhi
      0.000000000000       2.402562688734  zlo zhi
     -0.069206625517      -0.208585949037       0.148288275302  xy xz yz
 
Masses
 
            1   1.00800000              # H
 
Atoms # atomic
 
         1    1        1.123424103522       1.150003461830       1.238343599654
