 # H
  
           1  atoms
           1  atom types
 
      0.000000000000       2.262748333333  xlo xhi
      0.000000000000       2.261909473885  ylo yhi
      0.000000000000       2.259824591151  zlo zhi
      0.061608051022       0.051786508161       0.102669346946  xy xz yz
 
Masses
 
            1   1.00800000              # H
 
Atoms # atomic
 
         1    1        1.064772807568       1.272757994952       1.020963488774
