 # H
  
           1  atoms
           1  atom types
 
      0.000000000000       2.339451666667  xlo xhi
      0.000000000000       2.292972518921  ylo yhi
      0.000000000000       2.290464001560  zlo zhi
      0.193231046872      -0.173485538834       0.136889135341  xy xz yz
 
Masses
 
            1   1.00800000              # H
 
Atoms # atomic
 
         1    1        1.284611370287       1.335594712585       1.026618967758
