 # H
  
           1  atoms
           1  atom types
 
      0.000000000000       2.224396666667  xlo xhi
      0.000000000000       2.298823963574  ylo yhi
      0.000000000000       2.293633576111  zlo zhi
      0.102321036430      -0.099753808146      -0.156062187269  xy xz yz
 
Masses
 
            1   1.00800000              # H
 
Atoms # atomic
 
         1    1        0.082738291359       0.996549230150       0.132151694987
