 # H
  
           1  atoms
           1  atom types
 
      0.000000000000       2.224396666667  xlo xhi
      0.000000000000       2.217489630128  ylo yhi
      0.000000000000       2.297529685809  zlo zhi
     -0.175157845823      -0.114177158584      -0.058156076930  xy xz yz
 
Masses
 
            1   1.00800000              # H
 
Atoms # atomic
 
         1    1        0.887211738303       0.121177676397       0.016848623648
