 # H
  
           1  atoms
           1  atom types
 
      0.000000000000       2.186045000000  xlo xhi
      0.000000000000       2.298658499242  ylo yhi
      0.000000000000       2.295265365425  zlo zhi
     -0.105973175197      -0.145454128999      -0.075241003706  xy xz yz
 
Masses
 
            1   1.00800000              # H
 
Atoms # atomic
 
         1    1        1.092457114051       1.124133212635       1.208936219940
