 # H
  
           1  atoms
           1  atom types
 
      0.000000000000       2.339451666667  xlo xhi
      0.000000000000       2.338822091430  ylo yhi
      0.000000000000       2.325921738769  zlo zhi
      0.054270851379      -0.172567631798      -0.182599502322  xy xz yz
 
Masses
 
            1   1.00800000              # H
 
Atoms # atomic
 
         1    1        1.090599180995       1.135069210164       1.271425304795
