 # H
  
           1  atoms
           1  atom types
 
      0.000000000000       2.262748333333  xlo xhi
      0.000000000000       2.262327204475  ylo yhi
      0.000000000000       2.293016654782  zlo zhi
     -0.043653635550       0.130158140166       0.142108020332  xy xz yz
 
Masses
 
            1   1.00800000              # H
 
Atoms # atomic
 
         1    1        1.295473196650       1.329551553204       1.275875639354
