 # H
  
           1  atoms
           1  atom types
 
      0.000000000000       2.339451666667  xlo xhi
      0.000000000000       2.339130927830  ylo yhi
      0.000000000000       2.292306464160  zlo zhi
      0.038737619173       0.200450690279      -0.014553526623  xy xz yz
 
Masses
 
            1   1.00800000              # H
 
Atoms # atomic
 
         1    1        1.307611283711       1.127937646288       1.105425512525
