 # H
  
           1  atoms
           1  atom types
 
      0.000000000000       2.377803333333  xlo xhi
      0.000000000000       2.369911568541  ylo yhi
      0.000000000000       2.374042887181  zlo zhi
     -0.193566136771      -0.117016662335       0.064623235527  xy xz yz
 
Masses
 
            1   1.00800000              # H
 
Atoms # atomic
 
         1    1        0.035298472893       0.129111267814       0.053685937225
