 # H
  
           1  atoms
           1  atom types
 
      0.000000000000       2.186045000000  xlo xhi
      0.000000000000       2.185867834646  ylo yhi
      0.000000000000       2.291160950381  zlo zhi
      0.027830765053      -0.157184700223      -0.144691670337  xy xz yz
 
Masses
 
            1   1.00800000              # H
 
Atoms # atomic
 
         1    1        0.951028176254       0.059605866675       0.022458979682
