
     Program PWSCF v.7.0 starts on 24Sep2023 at 14: 8:10 

     This program is part of the open-source Quantum ESPRESSO suite
     for quantum simulation of materials; please cite
         "P. Giannozzi et al., J. Phys.:Condens. Matter 21 395502 (2009);
         "P. Giannozzi et al., J. Phys.:Condens. Matter 29 465901 (2017);
         "P. Giannozzi et al., J. Chem. Phys. 152 154105 (2020);
          URL http://www.quantum-espresso.org", 
     in publications or presentations arising from this work. More details at
     http://www.quantum-espresso.org/quote

     Parallel version (MPI), running on    16 processors

     MPI processes distributed on     1 nodes
     R & G space division:  proc/nbgrp/npool/nimage =      16
     11313 MiB available memory on the printing compute node when the environment starts

     Reading input from Al2ZnO4_mp-34210.in

     Current dimensions of program PWSCF are:
     Max number of different atomic species (ntypx) = 10
     Max number of k-points (npk) =  40000
     Max angular momentum in pseudopotentials (lmaxx) =  4
     file O.pbe-n-kjpaw_psl.0.1.UPF: wavefunction(s)  2P renormalized
     file Al.pbe-n-kjpaw_psl.1.0.0.UPF: wavefunction(s)  3S 3P renormalized

     Subspace diagonalization in iterative solution of the eigenvalue problem:
     a serial algorithm will be used


     Parallelization info
     --------------------
     sticks:   dense  smooth     PW     G-vecs:    dense   smooth      PW
     Min         284     142     39                20530     7250    1065
     Max         285     144     41                20535     7252    1067
     Sum        4547    2275    637               328511   116015   17057

     Using Slab Decomposition



     bravais-lattice index     =            0
     lattice parameter (alat)  =      10.7909  a.u.
     unit-cell volume          =    1849.4295 (a.u.)^3
     number of atoms/cell      =           28
     number of atomic types    =            3
     number of electrons       =       200.00
     number of Kohn-Sham states=          120
     kinetic-energy cutoff     =      60.0000  Ry
     charge density cutoff     =     480.0000  Ry
     scf convergence threshold =      2.0E-06
     mixing beta               =       0.4000
     number of iterations used =            8  plain     mixing
     Exchange-correlation= SLA  PW   PBX  PBC
                           (   1   4   3   4   0   0   0)

     celldm(1)=  10.790937  celldm(2)=   0.000000  celldm(3)=   0.000000
     celldm(4)=   0.000000  celldm(5)=   0.000000  celldm(6)=   0.000000

     crystal axes: (cart. coord. in units of alat)
               a(1) = (   1.000000   0.000000   0.000000 )  
               a(2) = (   0.000000   1.021572   0.000000 )  
               a(3) = (   0.000000   0.000000   1.440759 )  

     reciprocal axes: (cart. coord. in units 2 pi/alat)
               b(1) = (  1.000000  0.000000  0.000000 )  
               b(2) = (  0.000000  0.978883  0.000000 )  
               b(3) = (  0.000000  0.000000  0.694079 )  


     PseudoPot. # 1 for Zn read from file:
     /opt/QEpot/SSSP_efficiency_pseudos/Zn_pbe_v1.uspp.F.UPF
     MD5 check sum: df62231357ef9e81f77b2b3087fa5675
     Pseudo is Ultrasoft, Zval = 20.0
     Generated by new atomic code, or converted to UPF format
     Using radial grid of  943 points,  6 beta functions with: 
                l(1) =   0
                l(2) =   0
                l(3) =   1
                l(4) =   1
                l(5) =   2
                l(6) =   2
     Q(r) pseudized with  8 coefficients,  rinner =    1.100   1.100   1.100
                                                       1.100   1.100

     PseudoPot. # 2 for O  read from file:
     /opt/QEpot/SSSP_efficiency_pseudos/O.pbe-n-kjpaw_psl.0.1.UPF
     MD5 check sum: 0234752ac141de4415c5fc33072bef88
     Pseudo is Projector augmented-wave + core cor, Zval =  6.0
     Generated using "atomic" code by A. Dal Corso  v.5.0.99 svn rev. 10869
     Shape of augmentation charge: BESSEL
     Using radial grid of 1095 points,  4 beta functions with: 
                l(1) =   0
                l(2) =   0
                l(3) =   1
                l(4) =   1
     Q(r) pseudized with 0 coefficients 


     PseudoPot. # 3 for Al read from file:
     /opt/QEpot/SSSP_efficiency_pseudos/Al.pbe-n-kjpaw_psl.1.0.0.UPF
     MD5 check sum: cfc449ca30b5f3223ec38ddd88ac046d
     Pseudo is Projector augmented-wave + core cor, Zval =  3.0
     Generated using "atomic" code by A. Dal Corso  v.5.1
     Shape of augmentation charge: PSQ
     Using radial grid of 1135 points,  6 beta functions with: 
                l(1) =   0
                l(2) =   0
                l(3) =   1
                l(4) =   1
                l(5) =   2
                l(6) =   2
     Q(r) pseudized with 0 coefficients 


     atomic species   valence    mass     pseudopotential
        Zn            20.00    65.38000     Zn( 1.00)
        O              6.00    15.99940     O ( 1.00)
        Al             3.00    26.98154     Al( 1.00)

     Starting magnetic structure 
     atomic species   magnetization
        Zn           0.100
        O            0.100
        Al           0.100

     No symmetry found


                                    s                        frac. trans.

      isym =  1     identity                                     

 cryst.   s( 1) = (     1          0          0      )
                  (     0          1          0      )
                  (     0          0          1      )

 cart.    s( 1) = (  1.0000000  0.0000000  0.0000000 )
                  (  0.0000000  1.0000000  0.0000000 )
                  (  0.0000000  0.0000000  1.0000000 )


   Cartesian axes

     site n.     atom                  positions (alat units)
         1           Al  tau(   1) = (  -0.0033784   0.0068293   0.7248394  )
         2           Al  tau(   2) = (  -0.0069159   0.5104102   0.7288481  )
         3           Al  tau(   3) = (   0.5085437   0.5108799  -0.0018303  )
         4           Al  tau(   4) = (   0.4966216   0.0068293   0.0044601  )
         5           Al  tau(   5) = (  -0.0069159   0.2550171   0.2034207  )
         6           Al  tau(   6) = (   0.0085437   0.7662730   1.2439764  )
         7           Al  tau(   7) = (   0.4966216   0.7730084   0.9197913  )
         8           Al  tau(   8) = (   0.4930841   0.2550171   0.5338961  )
         9           Zn  tau(   9) = (   0.2585437   0.2554869   1.0787386  )
        10           Zn  tau(  10) = (   0.7466216   0.2622223   1.0850290  )
        11           Zn  tau(  11) = (   0.2430841   0.7658032   0.3686584  )
        12           Zn  tau(  12) = (   0.7585437   0.7662730   0.3583593  )
        13           O   tau(  13) = (  -0.0033784   0.0114739   0.3906302  )
        14           O   tau(  14) = (  -0.0069159   0.5057656   0.3946389  )
        15           O   tau(  15) = (  -0.0033784   1.0237569   1.0590486  )
        16           O   tau(  16) = (  -0.0069159   0.5150547   1.0630573  )
        17           O   tau(  17) = (   0.4966216   0.5222599   1.1110095  )
        18           O   tau(  18) = (   0.4930841   1.0165517   1.1150182  )
        19           O   tau(  19) = (   0.4966216   0.5129708   0.3386692  )
        20           O   tau(  20) = (   0.4930841   0.0042687   0.3426779  )
        21           O   tau(  21) = (   0.2315156   0.2622223   0.7142959  )
        22           O   tau(  22) = (   0.7581901   0.2550171   0.7183046  )
        23           O   tau(  23) = (   0.2315156   0.7730084   0.7353828  )
        24           O   tau(  24) = (   0.7581901   0.7658032   0.7393916  )
        25           O   tau(  25) = (   0.7315156   0.7730084   1.4346752  )
        26           O   tau(  26) = (   0.2581901   0.7658032   1.4386839  )
        27           O   tau(  27) = (   0.7315156   0.2622223   0.0150035  )
        28           O   tau(  28) = (   0.2581901   0.2550171   0.0190122  )

   Crystallographic axes

     site n.     atom                  positions (cryst. coord.)
         1           Al  tau(   1) = ( -0.0033784  0.0066851  0.5030956  )
         2           Al  tau(   2) = ( -0.0069159  0.4996320  0.5058780  )
         3           Al  tau(   3) = (  0.5085437  0.5000919 -0.0012704  )
         4           Al  tau(   4) = (  0.4966216  0.0066851  0.0030956  )
         5           Al  tau(   5) = ( -0.0069159  0.2496320  0.1411900  )
         6           Al  tau(   6) = (  0.0085437  0.7500919  0.8634176  )
         7           Al  tau(   7) = (  0.4966216  0.7566851  0.6384076  )
         8           Al  tau(   8) = (  0.4930841  0.2496320  0.3705660  )
         9           Zn  tau(   9) = (  0.2585437  0.2500919  0.7487296  )
        10           Zn  tau(  10) = (  0.7466216  0.2566851  0.7530956  )
        11           Zn  tau(  11) = (  0.2430841  0.7496320  0.2558780  )
        12           Zn  tau(  12) = (  0.7585437  0.7500919  0.2487296  )
        13           O   tau(  13) = ( -0.0033784  0.0112316  0.2711281  )
        14           O   tau(  14) = ( -0.0069159  0.4950855  0.2739105  )
        15           O   tau(  15) = ( -0.0033784  1.0021386  0.7350631  )
        16           O   tau(  16) = ( -0.0069159  0.5041785  0.7378455  )
        17           O   tau(  17) = (  0.4966216  0.5112316  0.7711281  )
        18           O   tau(  18) = (  0.4930841  0.9950855  0.7739105  )
        19           O   tau(  19) = (  0.4966216  0.5021386  0.2350631  )
        20           O   tau(  20) = (  0.4930841  0.0041785  0.2378455  )
        21           O   tau(  21) = (  0.2315156  0.2566851  0.4957776  )
        22           O   tau(  22) = (  0.7581901  0.2496320  0.4985600  )
        23           O   tau(  23) = (  0.2315156  0.7566851  0.5104136  )
        24           O   tau(  24) = (  0.7581901  0.7496320  0.5131960  )
        25           O   tau(  25) = (  0.7315156  0.7566851  0.9957776  )
        26           O   tau(  26) = (  0.2581901  0.7496320  0.9985600  )
        27           O   tau(  27) = (  0.7315156  0.2566851  0.0104136  )
        28           O   tau(  28) = (  0.2581901  0.2496320  0.0131960  )

     number of k points=    26  Gaussian smearing, width (Ry)=  0.0220
                       cart. coord. in units 2pi/alat
        k(    1) = (   0.0000000   0.0000000   0.0000000), wk =   0.0208333
        k(    2) = (   0.0000000   0.0000000   0.2313596), wk =   0.0416667
        k(    3) = (   0.0000000   0.2447208   0.0000000), wk =   0.0416667
        k(    4) = (   0.0000000   0.2447208   0.2313596), wk =   0.0416667
        k(    5) = (   0.0000000   0.2447208  -0.2313596), wk =   0.0416667
        k(    6) = (   0.0000000  -0.4894417   0.0000000), wk =   0.0208333
        k(    7) = (   0.0000000  -0.4894417   0.2313596), wk =   0.0416667
        k(    8) = (   0.2500000   0.0000000   0.0000000), wk =   0.0416667
        k(    9) = (   0.2500000   0.0000000   0.2313596), wk =   0.0416667
        k(   10) = (   0.2500000   0.0000000  -0.2313596), wk =   0.0416667
        k(   11) = (   0.2500000   0.2447208   0.0000000), wk =   0.0416667
        k(   12) = (   0.2500000   0.2447208   0.2313596), wk =   0.0416667
        k(   13) = (   0.2500000   0.2447208  -0.2313596), wk =   0.0416667
        k(   14) = (   0.2500000  -0.4894417   0.0000000), wk =   0.0416667
        k(   15) = (   0.2500000  -0.4894417   0.2313596), wk =   0.0416667
        k(   16) = (   0.2500000  -0.4894417  -0.2313596), wk =   0.0416667
        k(   17) = (   0.2500000  -0.2447208   0.0000000), wk =   0.0416667
        k(   18) = (   0.2500000  -0.2447208   0.2313596), wk =   0.0416667
        k(   19) = (   0.2500000  -0.2447208  -0.2313596), wk =   0.0416667
        k(   20) = (  -0.5000000   0.0000000   0.0000000), wk =   0.0208333
        k(   21) = (  -0.5000000   0.0000000   0.2313596), wk =   0.0416667
        k(   22) = (  -0.5000000   0.2447208   0.0000000), wk =   0.0416667
        k(   23) = (  -0.5000000   0.2447208   0.2313596), wk =   0.0416667
        k(   24) = (  -0.5000000   0.2447208  -0.2313596), wk =   0.0416667
        k(   25) = (  -0.5000000  -0.4894417   0.0000000), wk =   0.0208333
        k(   26) = (  -0.5000000  -0.4894417   0.2313596), wk =   0.0416667

                       cryst. coord.
        k(    1) = (   0.0000000   0.0000000   0.0000000), wk =   0.0208333
        k(    2) = (   0.0000000   0.0000000   0.3333333), wk =   0.0416667
        k(    3) = (   0.0000000   0.2500000   0.0000000), wk =   0.0416667
        k(    4) = (   0.0000000   0.2500000   0.3333333), wk =   0.0416667
        k(    5) = (   0.0000000   0.2500000  -0.3333333), wk =   0.0416667
        k(    6) = (   0.0000000  -0.5000000   0.0000000), wk =   0.0208333
        k(    7) = (   0.0000000  -0.5000000   0.3333333), wk =   0.0416667
        k(    8) = (   0.2500000   0.0000000   0.0000000), wk =   0.0416667
        k(    9) = (   0.2500000   0.0000000   0.3333333), wk =   0.0416667
        k(   10) = (   0.2500000   0.0000000  -0.3333333), wk =   0.0416667
        k(   11) = (   0.2500000   0.2500000   0.0000000), wk =   0.0416667
        k(   12) = (   0.2500000   0.2500000   0.3333333), wk =   0.0416667
        k(   13) = (   0.2500000   0.2500000  -0.3333333), wk =   0.0416667
        k(   14) = (   0.2500000  -0.5000000   0.0000000), wk =   0.0416667
        k(   15) = (   0.2500000  -0.5000000   0.3333333), wk =   0.0416667
        k(   16) = (   0.2500000  -0.5000000  -0.3333333), wk =   0.0416667
        k(   17) = (   0.2500000  -0.2500000   0.0000000), wk =   0.0416667
        k(   18) = (   0.2500000  -0.2500000   0.3333333), wk =   0.0416667
        k(   19) = (   0.2500000  -0.2500000  -0.3333333), wk =   0.0416667
        k(   20) = (  -0.5000000   0.0000000   0.0000000), wk =   0.0208333
        k(   21) = (  -0.5000000   0.0000000   0.3333333), wk =   0.0416667
        k(   22) = (  -0.5000000   0.2500000   0.0000000), wk =   0.0416667
        k(   23) = (  -0.5000000   0.2500000   0.3333333), wk =   0.0416667
        k(   24) = (  -0.5000000   0.2500000  -0.3333333), wk =   0.0416667
        k(   25) = (  -0.5000000  -0.5000000   0.0000000), wk =   0.0208333
        k(   26) = (  -0.5000000  -0.5000000   0.3333333), wk =   0.0416667

     Dense  grid:   328511 G-vectors     FFT dimensions: (  75,  80, 120)

     Smooth grid:   116015 G-vectors     FFT dimensions: (  54,  60,  80)

     Dynamical RAM for                 wfc:       1.66 MB

     Dynamical RAM for     wfc (w. buffer):      88.02 MB

     Dynamical RAM for           str. fact:       0.94 MB

     Dynamical RAM for           local pot:       0.00 MB

     Dynamical RAM for          nlocal pot:       4.76 MB

     Dynamical RAM for                qrad:       5.27 MB

     Dynamical RAM for          rho,v,vnew:       4.08 MB

     Dynamical RAM for               rhoin:       1.36 MB

     Dynamical RAM for            rho*nmix:      10.03 MB

     Dynamical RAM for           G-vectors:       1.23 MB

     Dynamical RAM for          h,s,v(r/c):       2.64 MB

     Dynamical RAM for          <psi|beta>:       0.63 MB

     Dynamical RAM for                 psi:       3.32 MB

     Dynamical RAM for                hpsi:       3.32 MB

     Dynamical RAM for                spsi:       3.32 MB

     Dynamical RAM for      wfcinit/wfcrot:       4.60 MB

     Dynamical RAM for           addusdens:      63.60 MB

     Dynamical RAM for          addusforce:      73.12 MB

     Dynamical RAM for         addusstress:      63.44 MB

     Estimated static dynamical RAM per process >     109.11 MB

     Estimated max dynamical RAM per process >     192.26 MB

     Estimated total dynamical RAM >       3.00 GB
     Generating pointlists ...
     new r_m :   0.1454 (alat units)  1.5686 (a.u.) for type    1
     new r_m :   0.1267 (alat units)  1.3674 (a.u.) for type    2
     new r_m :   0.1267 (alat units)  1.3674 (a.u.) for type    3

     Initial potential from superposition of free atoms

     starting charge     199.9811, renormalised to     200.0000
     Starting wfcs are  148 randomized atomic wfcs
     Checking if some PAW data can be deallocated... 
       PAW data deallocated on    6 nodes for type:  2
       PAW data deallocated on   12 nodes for type:  3

     total cpu time spent up to now is       12.8 secs

     Self-consistent Calculation

     iteration #  1     ecut=    60.00 Ry     beta= 0.40
     Davidson diagonalization with overlap

---- Real-time Memory Report at c_bands before calling an iterative solver
           250 MiB given to the printing process from OS
             0 MiB allocation reported by mallinfo(arena+hblkhd)
         11459 MiB available memory on the node where the printing process lives
------------------
     ethr =  1.00E-02,  avg # of iterations =  3.4

     total cpu time spent up to now is       40.7 secs

     total energy              =   -2829.91290574 Ry
     estimated scf accuracy    <       7.12174034 Ry

     total magnetization       =     0.00 Bohr mag/cell
     absolute magnetization    =     2.03 Bohr mag/cell

     iteration #  2     ecut=    60.00 Ry     beta= 0.40
     Davidson diagonalization with overlap

---- Real-time Memory Report at c_bands before calling an iterative solver
           331 MiB given to the printing process from OS
             0 MiB allocation reported by mallinfo(arena+hblkhd)
         10998 MiB available memory on the node where the printing process lives
------------------
     ethr =  3.56E-03,  avg # of iterations =  2.0

     total cpu time spent up to now is       68.3 secs

     total energy              =   -2831.56801734 Ry
     estimated scf accuracy    <       0.67044513 Ry

     total magnetization       =     0.00 Bohr mag/cell
     absolute magnetization    =     1.27 Bohr mag/cell

     iteration #  3     ecut=    60.00 Ry     beta= 0.40
     Davidson diagonalization with overlap

---- Real-time Memory Report at c_bands before calling an iterative solver
           337 MiB given to the printing process from OS
             0 MiB allocation reported by mallinfo(arena+hblkhd)
         10989 MiB available memory on the node where the printing process lives
------------------
     ethr =  3.35E-04,  avg # of iterations =  7.1

     total cpu time spent up to now is       99.6 secs

     total energy              =   -2831.65462521 Ry
     estimated scf accuracy    <       0.23150364 Ry

     total magnetization       =     0.00 Bohr mag/cell
     absolute magnetization    =     0.95 Bohr mag/cell

     iteration #  4     ecut=    60.00 Ry     beta= 0.40
     Davidson diagonalization with overlap

---- Real-time Memory Report at c_bands before calling an iterative solver
           337 MiB given to the printing process from OS
             0 MiB allocation reported by mallinfo(arena+hblkhd)
         10984 MiB available memory on the node where the printing process lives
------------------
     ethr =  1.16E-04,  avg # of iterations =  4.2

     total cpu time spent up to now is      126.8 secs

     total energy              =   -2831.66942556 Ry
     estimated scf accuracy    <       0.02330487 Ry

     total magnetization       =     0.00 Bohr mag/cell
     absolute magnetization    =     0.46 Bohr mag/cell

     iteration #  5     ecut=    60.00 Ry     beta= 0.40
     Davidson diagonalization with overlap

---- Real-time Memory Report at c_bands before calling an iterative solver
           337 MiB given to the printing process from OS
             0 MiB allocation reported by mallinfo(arena+hblkhd)
         10982 MiB available memory on the node where the printing process lives
------------------
     ethr =  1.17E-05,  avg # of iterations =  9.5

     total cpu time spent up to now is      164.6 secs

     total energy              =   -2831.66948474 Ry
     estimated scf accuracy    <       0.00258126 Ry

     total magnetization       =     0.00 Bohr mag/cell
     absolute magnetization    =     0.23 Bohr mag/cell

     iteration #  6     ecut=    60.00 Ry     beta= 0.40
     Davidson diagonalization with overlap

---- Real-time Memory Report at c_bands before calling an iterative solver
           337 MiB given to the printing process from OS
             0 MiB allocation reported by mallinfo(arena+hblkhd)
         10981 MiB available memory on the node where the printing process lives
------------------
     ethr =  1.29E-06,  avg # of iterations =  3.8

     total cpu time spent up to now is      198.6 secs

     total energy              =   -2831.67062460 Ry
     estimated scf accuracy    <       0.00133998 Ry

     total magnetization       =    -0.00 Bohr mag/cell
     absolute magnetization    =     0.10 Bohr mag/cell

     iteration #  7     ecut=    60.00 Ry     beta= 0.40
     Davidson diagonalization with overlap

---- Real-time Memory Report at c_bands before calling an iterative solver
           337 MiB given to the printing process from OS
             0 MiB allocation reported by mallinfo(arena+hblkhd)
         10973 MiB available memory on the node where the printing process lives
------------------
     ethr =  6.70E-07,  avg # of iterations =  1.1

     total cpu time spent up to now is      220.6 secs

     total energy              =   -2831.67059046 Ry
     estimated scf accuracy    <       0.00029449 Ry

     total magnetization       =    -0.00 Bohr mag/cell
     absolute magnetization    =     0.07 Bohr mag/cell

     iteration #  8     ecut=    60.00 Ry     beta= 0.40
     Davidson diagonalization with overlap

---- Real-time Memory Report at c_bands before calling an iterative solver
           341 MiB given to the printing process from OS
             0 MiB allocation reported by mallinfo(arena+hblkhd)
         10948 MiB available memory on the node where the printing process lives
------------------
     ethr =  1.47E-07,  avg # of iterations =  2.1

     total cpu time spent up to now is      249.3 secs

     total energy              =   -2831.67069361 Ry
     estimated scf accuracy    <       0.00002700 Ry

     total magnetization       =    -0.00 Bohr mag/cell
     absolute magnetization    =     0.02 Bohr mag/cell

     iteration #  9     ecut=    60.00 Ry     beta= 0.40
     Davidson diagonalization with overlap

---- Real-time Memory Report at c_bands before calling an iterative solver
           342 MiB given to the printing process from OS
             0 MiB allocation reported by mallinfo(arena+hblkhd)
         10920 MiB available memory on the node where the printing process lives
------------------
     ethr =  1.35E-08,  avg # of iterations =  1.6

     total cpu time spent up to now is      273.1 secs

     total energy              =   -2831.67069419 Ry
     estimated scf accuracy    <       0.00000679 Ry

     total magnetization       =    -0.00 Bohr mag/cell
     absolute magnetization    =     0.02 Bohr mag/cell

     iteration # 10     ecut=    60.00 Ry     beta= 0.40
     Davidson diagonalization with overlap

---- Real-time Memory Report at c_bands before calling an iterative solver
           342 MiB given to the printing process from OS
             0 MiB allocation reported by mallinfo(arena+hblkhd)
         10913 MiB available memory on the node where the printing process lives
------------------
     ethr =  3.40E-09,  avg # of iterations =  2.4

     Magnetic moment per site  (integrated on atomic sphere of radius R)
     atom   1 (R=0.127)  charge=  0.2865  magn= -0.0000
     atom   2 (R=0.127)  charge=  0.2862  magn= -0.0000
     atom   3 (R=0.127)  charge=  0.2881  magn= -0.0000
     atom   4 (R=0.127)  charge=  0.2857  magn= -0.0000
     atom   5 (R=0.127)  charge=  0.3229  magn= -0.0000
     atom   6 (R=0.127)  charge=  0.3175  magn= -0.0000
     atom   7 (R=0.127)  charge=  0.3227  magn= -0.0000
     atom   8 (R=0.127)  charge=  0.3144  magn= -0.0000
     atom   9 (R=0.145)  charge= 17.5117  magn= -0.0000
     atom  10 (R=0.145)  charge= 17.5135  magn= -0.0000
     atom  11 (R=0.145)  charge= 17.5110  magn= -0.0000
     atom  12 (R=0.145)  charge= 17.5105  magn= -0.0000
     atom  13 (R=0.127)  charge=  4.9564  magn=  0.0001
     atom  14 (R=0.127)  charge=  4.9477  magn=  0.0001
     atom  15 (R=0.127)  charge=  4.9367  magn=  0.0001
     atom  16 (R=0.127)  charge=  4.9515  magn=  0.0001
     atom  17 (R=0.127)  charge=  4.9501  magn=  0.0001
     atom  18 (R=0.127)  charge=  4.9535  magn=  0.0001
     atom  19 (R=0.127)  charge=  4.9193  magn=  0.0001
     atom  20 (R=0.127)  charge=  4.9308  magn=  0.0001
     atom  21 (R=0.127)  charge=  4.9439  magn=  0.0001
     atom  22 (R=0.127)  charge=  4.9350  magn=  0.0001
     atom  23 (R=0.127)  charge=  4.9247  magn=  0.0001
     atom  24 (R=0.127)  charge=  4.9258  magn=  0.0001
     atom  25 (R=0.127)  charge=  4.9171  magn=  0.0001
     atom  26 (R=0.127)  charge=  4.9239  magn=  0.0001
     atom  27 (R=0.127)  charge=  4.9443  magn=  0.0001
     atom  28 (R=0.127)  charge=  4.9169  magn=  0.0001

     total cpu time spent up to now is      302.3 secs

     End of self-consistent calculation

 ------ SPIN UP ------------


          k = 0.0000 0.0000 0.0000 ( 14483 PWs)   bands (ev):

  -114.9057-114.8844-114.6755-114.6061 -69.1590 -69.1335 -69.1156 -69.0963
   -69.0737 -69.0514 -68.9221 -68.8890 -68.8513 -68.8437 -68.8205 -68.7765
   -10.8603 -10.1641  -9.8339  -9.5174  -9.4007  -9.3529  -9.2980  -9.2037
    -9.1219  -9.0333  -8.9992  -8.8718  -8.8513  -8.6786  -8.5904  -8.5015
     0.4868   1.3595   1.4568   1.7214   1.8396   1.9917   2.1864   2.3468
     2.6748   2.8277   2.9485   3.0289   3.0753   3.1331   3.2006   3.3212
     3.3471   3.4473   3.4765   3.4878   3.5482   3.5959   3.6259   3.7190
     3.9998   4.0833   4.1340   4.1866   4.2576   4.3154   4.4468   4.5311
     4.5466   4.6079   4.6315   4.7161   4.7708   4.8738   4.9240   4.9724
     5.1425   5.1503   5.3507   5.6512   5.6803   5.7107   5.9220   6.0694
     6.0836   6.1644   6.2269   6.2946   6.3478   6.3590   6.3794   6.5050
     6.7429   6.7867   7.0897   7.1178   7.1642   7.3841   7.9412   8.0297
     8.1843   8.2065   8.3123   8.4645  11.4239  14.0456  14.1677  14.2546
    14.5241  14.6658  14.8039  15.7945  15.8828  15.9340  16.1256  16.3397
    16.4725  16.8291  17.1356  17.8157  17.8506  18.1806  18.3988  18.4747

     occupation numbers 
     1.0000   1.0000   1.0000   1.0000   1.0000   1.0000   1.0000   1.0000
     1.0000   1.0000   1.0000   1.0000   1.0000   1.0000   1.0000   1.0000
     1.0000   1.0000   1.0000   1.0000   1.0000   1.0000   1.0000   1.0000
     1.0000   1.0000   1.0000   1.0000   1.0000   1.0000   1.0000   1.0000
     1.0000   1.0000   1.0000   1.0000   1.0000   1.0000   1.0000   1.0000
     1.0000   1.0000   1.0000   1.0000   1.0000   1.0000   1.0000   1.0000
     1.0000   1.0000   1.0000   1.0000   1.0000   1.0000   1.0000   1.0000
     1.0000   1.0000   1.0000   1.0000   1.0000   1.0000   1.0000   1.0000
     1.0000   1.0000   1.0000   1.0000   1.0000   1.0000   1.0000   1.0000
     1.0000   1.0000   1.0000   1.0000   1.0000   1.0000   1.0000   1.0000
     1.0000   1.0000   1.0000   1.0000   1.0000   1.0000   1.0000   1.0000
     1.0000   1.0000   1.0000   1.0000   1.0000   1.0000   1.0000   1.0000
     1.0000   1.0000   1.0000   1.0000   0.0000   0.0000   0.0000   0.0000
     0.0000   0.0000   0.0000   0.0000   0.0000   0.0000   0.0000   0.0000
     0.0000   0.0000   0.0000   0.0000   0.0000   0.0000   0.0000   0.0000

          k = 0.0000 0.0000 0.2314 ( 14500 PWs)   bands (ev):

  -114.9057-114.8844-114.6755-114.6061 -69.1590 -69.1335 -69.1156 -69.0963
   -69.0737 -69.0514 -68.9221 -68.8890 -68.8513 -68.8437 -68.8205 -68.7765
   -10.7646 -10.4335  -9.6256  -9.4795  -9.3908  -9.3732  -9.2889  -9.2102
    -9.1280  -9.0478  -9.0026  -8.8600  -8.8499  -8.7237  -8.5992  -8.5042
     0.7092   1.3097   1.5701   1.6200   1.8849   2.0351   2.1658   2.1931
     2.2184   2.6169   2.9123   2.9778   3.0909   3.1385   3.2347   3.2884
     3.4484   3.4802   3.5002   3.5212   3.6974   3.7171   3.8453   3.8836
     3.9783   4.0517   4.1073   4.1201   4.2378   4.2836   4.3040   4.3666
     4.5667   4.6165   4.6446   4.6927   4.7406   4.8204   5.0366   5.1736
     5.2452   5.2726   5.4015   5.6092   5.6611   5.8136   5.8603   5.9118
     6.0436   6.1311   6.1641   6.3026   6.4904   6.5141   6.6041   6.6400
     6.7545   6.7709   6.8694   7.0112   7.2111   7.4379   7.7233   7.9409
     8.0048   8.1801   8.2162   8.4662  12.0833  13.4239  14.4185  14.5730
    14.6217  14.8919  15.1091  15.5057  15.6809  15.8480  16.1159  16.2082
    16.4660  16.7652  16.8358  17.2468  17.9145  18.0874  18.3992  18.5216

     occupation numbers 
     1.0000   1.0000   1.0000   1.0000   1.0000   1.0000   1.0000   1.0000
     1.0000   1.0000   1.0000   1.0000   1.0000   1.0000   1.0000   1.0000
     1.0000   1.0000   1.0000   1.0000   1.0000   1.0000   1.0000   1.0000
     1.0000   1.0000   1.0000   1.0000   1.0000   1.0000   1.0000   1.0000
     1.0000   1.0000   1.0000   1.0000   1.0000   1.0000   1.0000   1.0000
     1.0000   1.0000   1.0000   1.0000   1.0000   1.0000   1.0000   1.0000
     1.0000   1.0000   1.0000   1.0000   1.0000   1.0000   1.0000   1.0000
     1.0000   1.0000   1.0000   1.0000   1.0000   1.0000   1.0000   1.0000
     1.0000   1.0000   1.0000   1.0000   1.0000   1.0000   1.0000   1.0000
     1.0000   1.0000   1.0000   1.0000   1.0000   1.0000   1.0000   1.0000
     1.0000   1.0000   1.0000   1.0000   1.0000   1.0000   1.0000   1.0000
     1.0000   1.0000   1.0000   1.0000   1.0000   1.0000   1.0000   1.0000
     1.0000   1.0000   1.0000   1.0000   0.0000   0.0000   0.0000   0.0000
     0.0000   0.0000   0.0000   0.0000   0.0000   0.0000   0.0000   0.0000
     0.0000   0.0000   0.0000   0.0000   0.0000   0.0000   0.0000   0.0000

          k = 0.0000 0.2447 0.0000 ( 14551 PWs)   bands (ev):

  -114.9057-114.8844-114.6755-114.6061 -69.1590 -69.1335 -69.1156 -69.0963
   -69.0737 -69.0514 -68.9221 -68.8890 -68.8513 -68.8437 -68.8205 -68.7765
   -10.7370 -10.0896  -9.9098  -9.6862  -9.5029  -9.3470  -9.2716  -9.1881
    -9.1030  -8.9783  -8.9438  -8.9050  -8.8645  -8.6966  -8.6165  -8.5115
     0.7070   1.5295   1.6461   1.8677   2.0036   2.1242   2.1605   2.1904
     2.6994   2.7443   2.9417   3.0144   3.0674   3.1923   3.2284   3.2901
     3.3512   3.4173   3.4720   3.5304   3.5693   3.6715   3.7212   3.7462
     3.9294   3.9963   4.0691   4.1439   4.2453   4.3751   4.4236   4.4873
     4.5715   4.6045   4.6388   4.7063   4.7741   4.8081   4.9314   5.0225
     5.0755   5.0998   5.2440   5.4345   5.6940   5.7696   5.8806   5.9131
     5.9866   6.1326   6.1895   6.2413   6.2659   6.2803   6.3716   6.4177
     6.5688   6.9416   7.0463   7.0842   7.1787   7.3701   7.6229   7.8296
     7.9484   8.1692   8.1968   8.4248  12.1552  14.3501  14.5293  14.6036
    14.7311  14.8061  15.2101  15.3305  16.0326  16.3810  16.4132  16.5307
    16.6282  16.7498  16.8858  17.6763  18.2279  18.3156  18.4561  18.5356

     occupation numbers 
     1.0000   1.0000   1.0000   1.0000   1.0000   1.0000   1.0000   1.0000
     1.0000   1.0000   1.0000   1.0000   1.0000   1.0000   1.0000   1.0000
     1.0000   1.0000   1.0000   1.0000   1.0000   1.0000   1.0000   1.0000
     1.0000   1.0000   1.0000   1.0000   1.0000   1.0000   1.0000   1.0000
     1.0000   1.0000   1.0000   1.0000   1.0000   1.0000   1.0000   1.0000
     1.0000   1.0000   1.0000   1.0000   1.0000   1.0000   1.0000   1.0000
     1.0000   1.0000   1.0000   1.0000   1.0000   1.0000   1.0000   1.0000
     1.0000   1.0000   1.0000   1.0000   1.0000   1.0000   1.0000   1.0000
     1.0000   1.0000   1.0000   1.0000   1.0000   1.0000   1.0000   1.0000
     1.0000   1.0000   1.0000   1.0000   1.0000   1.0000   1.0000   1.0000
     1.0000   1.0000   1.0000   1.0000   1.0000   1.0000   1.0000   1.0000
     1.0000   1.0000   1.0000   1.0000   1.0000   1.0000   1.0000   1.0000
     1.0000   1.0000   1.0000   1.0000   0.0000   0.0000   0.0000   0.0000
     0.0000   0.0000   0.0000   0.0000   0.0000   0.0000   0.0000   0.0000
     0.0000   0.0000   0.0000   0.0000   0.0000   0.0000   0.0000   0.0000

          k = 0.0000 0.2447 0.2314 ( 14525 PWs)   bands (ev):

  -114.9057-114.8844-114.6755-114.6061 -69.1590 -69.1335 -69.1156 -69.0963
   -69.0737 -69.0514 -68.9221 -68.8890 -68.8513 -68.8437 -68.8205 -68.7765
   -10.6462 -10.3314  -9.8459  -9.6363  -9.4529  -9.3454  -9.2428  -9.1554
    -9.1104  -8.9989  -8.9567  -8.8977  -8.8637  -8.7174  -8.6386  -8.5122
     0.8978   1.4110   1.6262   1.8181   1.8962   2.1520   2.3050   2.3270
     2.4209   2.6906   2.8526   2.9234   3.0780   3.1794   3.2328   3.2664
     3.3324   3.4755   3.5255   3.5797   3.6786   3.7219   3.8231   3.8780
     3.9281   3.9977   4.0155   4.1130   4.1426   4.2343   4.2471   4.3907
     4.5812   4.6220   4.6518   4.6732   4.8494   4.9590   4.9913   5.0688
     5.0907   5.3022   5.4555   5.5000   5.5487   5.6436   5.7518   5.8556
     5.9323   6.0319   6.0766   6.1555   6.2220   6.3222   6.4877   6.5583
     6.6474   6.9558   6.9951   7.2567   7.3277   7.4629   7.4864   7.8035
     7.9215   7.9858   8.2028   8.4281  12.6160  13.7098  14.5439  14.8418
    14.8898  14.9883  15.2342  15.3320  15.9325  15.9934  16.4167  16.5504
    16.7432  16.7970  16.9047  17.5394  17.9327  18.0964  18.3915  18.4543

     occupation numbers 
     1.0000   1.0000   1.0000   1.0000   1.0000   1.0000   1.0000   1.0000
     1.0000   1.0000   1.0000   1.0000   1.0000   1.0000   1.0000   1.0000
     1.0000   1.0000   1.0000   1.0000   1.0000   1.0000   1.0000   1.0000
     1.0000   1.0000   1.0000   1.0000   1.0000   1.0000   1.0000   1.0000
     1.0000   1.0000   1.0000   1.0000   1.0000   1.0000   1.0000   1.0000
     1.0000   1.0000   1.0000   1.0000   1.0000   1.0000   1.0000   1.0000
     1.0000   1.0000   1.0000   1.0000   1.0000   1.0000   1.0000   1.0000
     1.0000   1.0000   1.0000   1.0000   1.0000   1.0000   1.0000   1.0000
     1.0000   1.0000   1.0000   1.0000   1.0000   1.0000   1.0000   1.0000
     1.0000   1.0000   1.0000   1.0000   1.0000   1.0000   1.0000   1.0000
     1.0000   1.0000   1.0000   1.0000   1.0000   1.0000   1.0000   1.0000
     1.0000   1.0000   1.0000   1.0000   1.0000   1.0000   1.0000   1.0000
     1.0000   1.0000   1.0000   1.0000   0.0000   0.0000   0.0000   0.0000
     0.0000   0.0000   0.0000   0.0000   0.0000   0.0000   0.0000   0.0000
     0.0000   0.0000   0.0000   0.0000   0.0000   0.0000   0.0000   0.0000

          k = 0.0000 0.2447-0.2314 ( 14525 PWs)   bands (ev):

  -114.9057-114.8844-114.6755-114.6061 -69.1590 -69.1335 -69.1156 -69.0963
   -69.0737 -69.0514 -68.9221 -68.8890 -68.8513 -68.8437 -68.8205 -68.7765
   -10.6467 -10.3298  -9.8526  -9.6316  -9.4302  -9.3474  -9.2827  -9.1628
    -9.0754  -9.0044  -8.9585  -8.8976  -8.8636  -8.7179  -8.6354  -8.5152
     0.8904   1.4227   1.6219   1.8036   1.9304   2.1467   2.3017   2.3297
     2.4100   2.6938   2.8519   2.9284   3.0660   3.1644   3.2431   3.2712
     3.3345   3.4782   3.5332   3.5744   3.6781   3.6921   3.8162   3.8932
     3.9582   3.9867   4.0092   4.1080   4.1338   4.2389   4.2508   4.3975
     4.5874   4.6079   4.6391   4.6848   4.8666   4.9401   4.9806   5.0724
     5.0901   5.3002   5.4603   5.4980   5.5728   5.6750   5.7289   5.8652
     5.9539   6.0376   6.0812   6.1111   6.2137   6.3458   6.4827   6.5440
     6.6356   6.9658   7.0035   7.2604   7.3301   7.4458   7.4824   7.7891
     7.9094   8.0033   8.2122   8.4290  12.6186  13.7123  14.5583  14.7988
    14.8876  14.9914  15.2780  15.3243  15.9094  16.0005  16.4423  16.5258
    16.7182  16.7876  16.9403  17.5482  17.9302  18.0972  18.3845  18.4556

     occupation numbers 
     1.0000   1.0000   1.0000   1.0000   1.0000   1.0000   1.0000   1.0000
     1.0000   1.0000   1.0000   1.0000   1.0000   1.0000   1.0000   1.0000
     1.0000   1.0000   1.0000   1.0000   1.0000   1.0000   1.0000   1.0000
     1.0000   1.0000   1.0000   1.0000   1.0000   1.0000   1.0000   1.0000
     1.0000   1.0000   1.0000   1.0000   1.0000   1.0000   1.0000   1.0000
     1.0000   1.0000   1.0000   1.0000   1.0000   1.0000   1.0000   1.0000
     1.0000   1.0000   1.0000   1.0000   1.0000   1.0000   1.0000   1.0000
     1.0000   1.0000   1.0000   1.0000   1.0000   1.0000   1.0000   1.0000
     1.0000   1.0000   1.0000   1.0000   1.0000   1.0000   1.0000   1.0000
     1.0000   1.0000   1.0000   1.0000   1.0000   1.0000   1.0000   1.0000
     1.0000   1.0000   1.0000   1.0000   1.0000   1.0000   1.0000   1.0000
     1.0000   1.0000   1.0000   1.0000   1.0000   1.0000   1.0000   1.0000
     1.0000   1.0000   1.0000   1.0000   0.0000   0.0000   0.0000   0.0000
     0.0000   0.0000   0.0000   0.0000   0.0000   0.0000   0.0000   0.0000
     0.0000   0.0000   0.0000   0.0000   0.0000   0.0000   0.0000   0.0000

          k = 0.0000-0.4894 0.0000 ( 14528 PWs)   bands (ev):

  -114.9057-114.8844-114.6755-114.6061 -69.1590 -69.1335 -69.1156 -69.0963
   -69.0737 -69.0514 -68.9221 -68.8890 -68.8513 -68.8437 -68.8205 -68.7765
   -10.4680 -10.2950  -9.9382  -9.6859  -9.5250  -9.4408  -9.2958  -9.1312
    -9.0964  -8.9785  -8.9389  -8.8996  -8.8238  -8.7687  -8.6156  -8.5219
     1.1362   1.3713   1.7393   1.9569   2.2132   2.3249   2.4998   2.5258
     2.7054   2.7281   2.7913   2.8735   2.8947   2.9720   3.0467   3.1042
     3.2967   3.4579   3.5388   3.5708   3.5888   3.5948   3.7741   3.9695
     4.0075   4.0532   4.0727   4.1576   4.1665   4.2607   4.3365   4.4797
     4.5964   4.6494   4.7126   4.7822   4.8033   4.8576   4.8758   4.8896
     4.9376   5.1145   5.4535   5.5424   5.6124   5.6530   5.7114   5.7765
     5.8149   5.9194   6.0696   6.0853   6.2015   6.2309   6.3128   6.4555
     6.4722   6.5344   7.0934   7.3164   7.3258   7.4046   7.5713   7.7066
     7.7089   7.8557   8.1639   8.3836  13.5253  13.6048  14.5991  14.7255
    15.4915  15.5925  15.6517  15.6867  15.9318  15.9810  16.0363  16.1401
    17.4352  17.5159  17.5500  17.6370  17.7406  17.8236  17.9272  17.9627

     occupation numbers 
     1.0000   1.0000   1.0000   1.0000   1.0000   1.0000   1.0000   1.0000
     1.0000   1.0000   1.0000   1.0000   1.0000   1.0000   1.0000   1.0000
     1.0000   1.0000   1.0000   1.0000   1.0000   1.0000   1.0000   1.0000
     1.0000   1.0000   1.0000   1.0000   1.0000   1.0000   1.0000   1.0000
     1.0000   1.0000   1.0000   1.0000   1.0000   1.0000   1.0000   1.0000
     1.0000   1.0000   1.0000   1.0000   1.0000   1.0000   1.0000   1.0000
     1.0000   1.0000   1.0000   1.0000   1.0000   1.0000   1.0000   1.0000
     1.0000   1.0000   1.0000   1.0000   1.0000   1.0000   1.0000   1.0000
     1.0000   1.0000   1.0000   1.0000   1.0000   1.0000   1.0000   1.0000
     1.0000   1.0000   1.0000   1.0000   1.0000   1.0000   1.0000   1.0000
     1.0000   1.0000   1.0000   1.0000   1.0000   1.0000   1.0000   1.0000
     1.0000   1.0000   1.0000   1.0000   1.0000   1.0000   1.0000   1.0000
     1.0000   1.0000   1.0000   1.0000   0.0000   0.0000   0.0000   0.0000
     0.0000   0.0000   0.0000   0.0000   0.0000   0.0000   0.0000   0.0000
     0.0000   0.0000   0.0000   0.0000   0.0000   0.0000   0.0000   0.0000

          k = 0.0000-0.4894 0.2314 ( 14530 PWs)   bands (ev):

  -114.9057-114.8844-114.6755-114.6061 -69.1590 -69.1335 -69.1156 -69.0963
   -69.0737 -69.0514 -68.9221 -68.8890 -68.8513 -68.8437 -68.8205 -68.7765
   -10.3969 -10.2230 -10.1063  -9.9036  -9.3722  -9.2924  -9.2560  -9.1544
    -9.0911  -8.9883  -8.9364  -8.9112  -8.8529  -8.7783  -8.6308  -8.5283
     1.2232   1.4346   1.5679   1.8337   2.2303   2.3506   2.5103   2.5643
     2.6046   2.7711   2.8100   2.9569   3.0364   3.0820   3.0969   3.1711
     3.2981   3.3989   3.4578   3.5488   3.6829   3.6929   3.7803   3.8207
     3.8377   3.9924   4.0584   4.1119   4.2037   4.2578   4.3186   4.3766
     4.4479   4.5821   4.6950   4.7493   4.7939   4.8484   4.9052   4.9596
     5.0732   5.2086   5.4992   5.5362   5.5666   5.5858   5.6192   5.6657
     5.8302   5.8465   5.9597   6.0358   6.1314   6.1813   6.5928   6.6959
     6.7101   6.7609   7.0723   7.0895   7.1384   7.3213   7.5826   7.7534
     7.8951   7.9533   8.1963   8.3918  13.6769  13.7721  14.2199  14.3107
    15.4942  15.5604  15.7204  15.8236  15.9178  15.9880  16.5699  16.5980
    16.6556  16.7870  17.3865  17.4505  18.0422  18.1682  18.4028  18.4781

     occupation numbers 
     1.0000   1.0000   1.0000   1.0000   1.0000   1.0000   1.0000   1.0000
     1.0000   1.0000   1.0000   1.0000   1.0000   1.0000   1.0000   1.0000
     1.0000   1.0000   1.0000   1.0000   1.0000   1.0000   1.0000   1.0000
     1.0000   1.0000   1.0000   1.0000   1.0000   1.0000   1.0000   1.0000
     1.0000   1.0000   1.0000   1.0000   1.0000   1.0000   1.0000   1.0000
     1.0000   1.0000   1.0000   1.0000   1.0000   1.0000   1.0000   1.0000
     1.0000   1.0000   1.0000   1.0000   1.0000   1.0000   1.0000   1.0000
     1.0000   1.0000   1.0000   1.0000   1.0000   1.0000   1.0000   1.0000
     1.0000   1.0000   1.0000   1.0000   1.0000   1.0000   1.0000   1.0000
     1.0000   1.0000   1.0000   1.0000   1.0000   1.0000   1.0000   1.0000
     1.0000   1.0000   1.0000   1.0000   1.0000   1.0000   1.0000   1.0000
     1.0000   1.0000   1.0000   1.0000   1.0000   1.0000   1.0000   1.0000
     1.0000   1.0000   1.0000   1.0000   0.0000   0.0000   0.0000   0.0000
     0.0000   0.0000   0.0000   0.0000   0.0000   0.0000   0.0000   0.0000
     0.0000   0.0000   0.0000   0.0000   0.0000   0.0000   0.0000   0.0000

          k = 0.2500 0.0000 0.0000 ( 14489 PWs)   bands (ev):

  -114.9057-114.8844-114.6755-114.6061 -69.1589 -69.1335 -69.1155 -69.0965
   -69.0737 -69.0514 -68.9220 -68.8889 -68.8514 -68.8437 -68.8205 -68.7765
   -10.7431 -10.1820  -9.7522  -9.5908  -9.4569  -9.3583  -9.2752  -9.2384
    -9.1462  -9.0958  -8.9570  -8.9225  -8.8121  -8.7008  -8.6227  -8.5210
     0.7688   1.5133   1.6213   1.8505   2.0234   2.2251   2.2679   2.4974
     2.5481   2.7486   2.8537   2.9760   3.0410   3.0886   3.1374   3.3445
     3.3501   3.4358   3.5051   3.5847   3.6017   3.6420   3.6545   3.7299
     3.8699   3.9595   3.9793   4.0585   4.2012   4.2949   4.4161   4.4647
     4.5260   4.5626   4.6640   4.6804   4.8374   4.9715   5.0200   5.1304
     5.1725   5.2379   5.4844   5.5660   5.6215   5.6828   5.7006   5.7522
     5.9021   6.0540   6.0801   6.2709   6.3026   6.3537   6.4032   6.5034
     6.7152   6.7637   6.9904   6.9988   7.0915   7.4424   7.8349   7.9143
     7.9518   8.0921   8.1706   8.1952  12.1897  14.4315  14.5293  14.6464
    14.7425  14.8643  15.1530  15.4351  15.9257  15.9880  16.3258  16.4963
    16.6518  16.7434  17.3994  17.8425  17.8771  18.2688  18.3967  18.7430

     occupation numbers 
     1.0000   1.0000   1.0000   1.0000   1.0000   1.0000   1.0000   1.0000
     1.0000   1.0000   1.0000   1.0000   1.0000   1.0000   1.0000   1.0000
     1.0000   1.0000   1.0000   1.0000   1.0000   1.0000   1.0000   1.0000
     1.0000   1.0000   1.0000   1.0000   1.0000   1.0000   1.0000   1.0000
     1.0000   1.0000   1.0000   1.0000   1.0000   1.0000   1.0000   1.0000
     1.0000   1.0000   1.0000   1.0000   1.0000   1.0000   1.0000   1.0000
     1.0000   1.0000   1.0000   1.0000   1.0000   1.0000   1.0000   1.0000
     1.0000   1.0000   1.0000   1.0000   1.0000   1.0000   1.0000   1.0000
     1.0000   1.0000   1.0000   1.0000   1.0000   1.0000   1.0000   1.0000
     1.0000   1.0000   1.0000   1.0000   1.0000   1.0000   1.0000   1.0000
     1.0000   1.0000   1.0000   1.0000   1.0000   1.0000   1.0000   1.0000
     1.0000   1.0000   1.0000   1.0000   1.0000   1.0000   1.0000   1.0000
     1.0000   1.0000   1.0000   1.0000   0.0000   0.0000   0.0000   0.0000
     0.0000   0.0000   0.0000   0.0000   0.0000   0.0000   0.0000   0.0000
     0.0000   0.0000   0.0000   0.0000   0.0000   0.0000   0.0000   0.0000

          k = 0.2500 0.0000 0.2314 ( 14538 PWs)   bands (ev):

  -114.9057-114.8844-114.6755-114.6061 -69.1589 -69.1335 -69.1155 -69.0965
   -69.0737 -69.0514 -68.9220 -68.8889 -68.8514 -68.8437 -68.8205 -68.7765
   -10.6558 -10.3681  -9.6717  -9.5590  -9.5027  -9.3824  -9.2473  -9.1891
    -9.1046  -9.0658  -8.9820  -8.9146  -8.8522  -8.7138  -8.6407  -8.5259
     0.9621   1.4519   1.6910   1.7483   2.0450   2.1184   2.2629   2.3355
     2.4968   2.7478   2.8789   2.9036   2.9718   3.1067   3.1889   3.2656
     3.3186   3.3803   3.4998   3.5700   3.6337   3.7205   3.8450   3.9421
     4.0007   4.0189   4.0378   4.0909   4.1958   4.2384   4.3414   4.3650
     4.4644   4.5088   4.5486   4.6895   4.8298   4.9412   5.0131   5.0906
     5.2513   5.3371   5.4544   5.5350   5.5469   5.6355   5.6611   5.8824
     5.9536   6.0333   6.0914   6.1223   6.3039   6.4477   6.4693   6.6292
     6.6702   6.7257   6.9584   7.0754   7.1820   7.6108   7.7309   7.8442
     7.9527   8.0197   8.0921   8.1913  12.6524  13.7381  14.6616  14.8620
    14.9538  14.9626  15.1992  15.4563  15.6632  15.8565  16.2885  16.6098
    16.7259  16.8230  17.3128  17.3645  17.7740  17.9245  18.3145  18.4560

     occupation numbers 
     1.0000   1.0000   1.0000   1.0000   1.0000   1.0000   1.0000   1.0000
     1.0000   1.0000   1.0000   1.0000   1.0000   1.0000   1.0000   1.0000
     1.0000   1.0000   1.0000   1.0000   1.0000   1.0000   1.0000   1.0000
     1.0000   1.0000   1.0000   1.0000   1.0000   1.0000   1.0000   1.0000
     1.0000   1.0000   1.0000   1.0000   1.0000   1.0000   1.0000   1.0000
     1.0000   1.0000   1.0000   1.0000   1.0000   1.0000   1.0000   1.0000
     1.0000   1.0000   1.0000   1.0000   1.0000   1.0000   1.0000   1.0000
     1.0000   1.0000   1.0000   1.0000   1.0000   1.0000   1.0000   1.0000
     1.0000   1.0000   1.0000   1.0000   1.0000   1.0000   1.0000   1.0000
     1.0000   1.0000   1.0000   1.0000   1.0000   1.0000   1.0000   1.0000
     1.0000   1.0000   1.0000   1.0000   1.0000   1.0000   1.0000   1.0000
     1.0000   1.0000   1.0000   1.0000   1.0000   1.0000   1.0000   1.0000
     1.0000   1.0000   1.0000   1.0000   0.0000   0.0000   0.0000   0.0000
     0.0000   0.0000   0.0000   0.0000   0.0000   0.0000   0.0000   0.0000
     0.0000   0.0000   0.0000   0.0000   0.0000   0.0000   0.0000   0.0000

          k = 0.2500 0.0000-0.2314 ( 14538 PWs)   bands (ev):

  -114.9057-114.8844-114.6755-114.6061 -69.1589 -69.1335 -69.1155 -69.0965
   -69.0737 -69.0514 -68.9220 -68.8889 -68.8514 -68.8437 -68.8205 -68.7765
   -10.6592 -10.3580  -9.7189  -9.5599  -9.4706  -9.3269  -9.2500  -9.2004
    -9.1351  -9.0900  -8.9659  -8.9198  -8.8409  -8.7108  -8.6435  -8.5258
     0.9442   1.4768   1.6910   1.7471   2.0609   2.1244   2.2741   2.3331
     2.5150   2.7472   2.8680   2.8850   2.9455   3.0745   3.1745   3.2614
     3.3137   3.3943   3.4820   3.5579   3.6619   3.7264   3.8650   3.9364
     3.9833   4.0197   4.0311   4.1108   4.1902   4.2516   4.3698   4.3977
     4.4654   4.4844   4.5484   4.6472   4.8222   4.9403   5.0309   5.1108
     5.2509   5.3657   5.4762   5.5288   5.5440   5.6651   5.6975   5.8395
     5.8951   5.9836   6.0886   6.1398   6.3271   6.4650   6.5305   6.5585
     6.6050   6.7825   6.9486   7.0799   7.2268   7.5436   7.7318   7.8457
     7.9621   8.0389   8.0918   8.1907  12.6455  13.7531  14.6408  14.8437
    14.9338  14.9850  15.2289  15.4280  15.6899  15.9448  16.3221  16.5165
    16.6577  16.8404  17.2939  17.3609  17.8364  17.9164  18.2667  18.4839

     occupation numbers 
     1.0000   1.0000   1.0000   1.0000   1.0000   1.0000   1.0000   1.0000
     1.0000   1.0000   1.0000   1.0000   1.0000   1.0000   1.0000   1.0000
     1.0000   1.0000   1.0000   1.0000   1.0000   1.0000   1.0000   1.0000
     1.0000   1.0000   1.0000   1.0000   1.0000   1.0000   1.0000   1.0000
     1.0000   1.0000   1.0000   1.0000   1.0000   1.0000   1.0000   1.0000
     1.0000   1.0000   1.0000   1.0000   1.0000   1.0000   1.0000   1.0000
     1.0000   1.0000   1.0000   1.0000   1.0000   1.0000   1.0000   1.0000
     1.0000   1.0000   1.0000   1.0000   1.0000   1.0000   1.0000   1.0000
     1.0000   1.0000   1.0000   1.0000   1.0000   1.0000   1.0000   1.0000
     1.0000   1.0000   1.0000   1.0000   1.0000   1.0000   1.0000   1.0000
     1.0000   1.0000   1.0000   1.0000   1.0000   1.0000   1.0000   1.0000
     1.0000   1.0000   1.0000   1.0000   1.0000   1.0000   1.0000   1.0000
     1.0000   1.0000   1.0000   1.0000   0.0000   0.0000   0.0000   0.0000
     0.0000   0.0000   0.0000   0.0000   0.0000   0.0000   0.0000   0.0000
     0.0000   0.0000   0.0000   0.0000   0.0000   0.0000   0.0000   0.0000

          k = 0.2500 0.2447 0.0000 ( 14502 PWs)   bands (ev):

  -114.9057-114.8844-114.6755-114.6061 -69.1589 -69.1335 -69.1155 -69.0965
   -69.0737 -69.0514 -68.9220 -68.8889 -68.8514 -68.8437 -68.8205 -68.7765
   -10.6246 -10.0960  -9.8325  -9.6359  -9.5219  -9.4534  -9.2689  -9.2366
    -9.1734  -9.0384  -8.9925  -8.9012  -8.8181  -8.7344  -8.6069  -8.5137
     0.9748   1.6915   1.7832   1.9787   2.1692   2.2687   2.2956   2.3856
     2.5079   2.8522   2.9262   3.0150   3.0933   3.1824   3.2127   3.2729
     3.4192   3.4409   3.4914   3.5134   3.5983   3.6292   3.7513   3.8146
     3.8769   3.9730   3.9879   4.0672   4.1660   4.2691   4.3215   4.4114
     4.5016   4.5731   4.5951   4.6789   4.7754   4.8229   4.8949   5.0740
     5.1619   5.2227   5.3064   5.4732   5.5871   5.6280   5.6960   5.7524
     5.8782   5.9816   6.0386   6.2381   6.2762   6.2882   6.3374   6.3980
     6.5403   6.6354   6.9074   7.1027   7.2001   7.4281   7.4517   7.5536
     7.7986   8.1041   8.1913   8.2413  12.7856  14.5532  14.8278  14.9164
    15.0137  15.1095  15.5144  15.5957  15.7033  16.3716  16.5590  16.6218
    16.6926  16.9689  17.3610  17.9139  18.1842  18.2256  18.6354  18.7069

     occupation numbers 
     1.0000   1.0000   1.0000   1.0000   1.0000   1.0000   1.0000   1.0000
     1.0000   1.0000   1.0000   1.0000   1.0000   1.0000   1.0000   1.0000
     1.0000   1.0000   1.0000   1.0000   1.0000   1.0000   1.0000   1.0000
     1.0000   1.0000   1.0000   1.0000   1.0000   1.0000   1.0000   1.0000
     1.0000   1.0000   1.0000   1.0000   1.0000   1.0000   1.0000   1.0000
     1.0000   1.0000   1.0000   1.0000   1.0000   1.0000   1.0000   1.0000
     1.0000   1.0000   1.0000   1.0000   1.0000   1.0000   1.0000   1.0000
     1.0000   1.0000   1.0000   1.0000   1.0000   1.0000   1.0000   1.0000
     1.0000   1.0000   1.0000   1.0000   1.0000   1.0000   1.0000   1.0000
     1.0000   1.0000   1.0000   1.0000   1.0000   1.0000   1.0000   1.0000
     1.0000   1.0000   1.0000   1.0000   1.0000   1.0000   1.0000   1.0000
     1.0000   1.0000   1.0000   1.0000   1.0000   1.0000   1.0000   1.0000
     1.0000   1.0000   1.0000   1.0000   0.0000   0.0000   0.0000   0.0000
     0.0000   0.0000   0.0000   0.0000   0.0000   0.0000   0.0000   0.0000
     0.0000   0.0000   0.0000   0.0000   0.0000   0.0000   0.0000   0.0000

          k = 0.2500 0.2447 0.2314 ( 14500 PWs)   bands (ev):

  -114.9057-114.8844-114.6755-114.6061 -69.1589 -69.1335 -69.1155 -69.0965
   -69.0737 -69.0514 -68.9220 -68.8889 -68.8514 -68.8437 -68.8205 -68.7765
   -10.5420 -10.2680  -9.7723  -9.5979  -9.5846  -9.4490  -9.3039  -9.1643
    -9.1026  -9.0518  -8.9747  -8.9098  -8.8366  -8.7456  -8.6286  -8.5155
     1.1460   1.5867   1.7643   1.9284   2.0241   2.3257   2.3735   2.4929
     2.5786   2.8149   2.8814   2.9294   3.0286   3.0486   3.1500   3.2147
     3.3291   3.3869   3.4860   3.5598   3.6754   3.7215   3.8481   3.8898
     3.9608   4.0226   4.0494   4.1067   4.2022   4.2412   4.2880   4.3745
     4.4129   4.4982   4.6080   4.6292   4.8142   4.8784   4.9341   5.1170
     5.1812   5.2153   5.3378   5.4474   5.5053   5.5649   5.6175   5.6858
     5.8463   5.9824   6.0442   6.1204   6.1277   6.2847   6.4325   6.4791
     6.7409   6.7980   6.8556   7.1052   7.3221   7.3975   7.5087   7.7585
     7.8939   7.9798   7.9921   8.1634  13.1500  14.0682  14.8316  15.0672
    15.1201  15.1911  15.3317  15.5844  15.8633  16.1835  16.3121  16.6082
    16.9587  17.2957  17.4517  17.7187  17.9065  17.9569  18.1641  18.2166

     occupation numbers 
     1.0000   1.0000   1.0000   1.0000   1.0000   1.0000   1.0000   1.0000
     1.0000   1.0000   1.0000   1.0000   1.0000   1.0000   1.0000   1.0000
     1.0000   1.0000   1.0000   1.0000   1.0000   1.0000   1.0000   1.0000
     1.0000   1.0000   1.0000   1.0000   1.0000   1.0000   1.0000   1.0000
     1.0000   1.0000   1.0000   1.0000   1.0000   1.0000   1.0000   1.0000
     1.0000   1.0000   1.0000   1.0000   1.0000   1.0000   1.0000   1.0000
     1.0000   1.0000   1.0000   1.0000   1.0000   1.0000   1.0000   1.0000
     1.0000   1.0000   1.0000   1.0000   1.0000   1.0000   1.0000   1.0000
     1.0000   1.0000   1.0000   1.0000   1.0000   1.0000   1.0000   1.0000
     1.0000   1.0000   1.0000   1.0000   1.0000   1.0000   1.0000   1.0000
     1.0000   1.0000   1.0000   1.0000   1.0000   1.0000   1.0000   1.0000
     1.0000   1.0000   1.0000   1.0000   1.0000   1.0000   1.0000   1.0000
     1.0000   1.0000   1.0000   1.0000   0.0000   0.0000   0.0000   0.0000
     0.0000   0.0000   0.0000   0.0000   0.0000   0.0000   0.0000   0.0000
     0.0000   0.0000   0.0000   0.0000   0.0000   0.0000   0.0000   0.0000

          k = 0.2500 0.2447-0.2314 ( 14500 PWs)   bands (ev):

  -114.9057-114.8844-114.6755-114.6061 -69.1589 -69.1335 -69.1155 -69.0965
   -69.0737 -69.0514 -68.9220 -68.8889 -68.8514 -68.8437 -68.8205 -68.7765
   -10.5458 -10.2563  -9.7875  -9.6433  -9.5419  -9.4435  -9.2654  -9.1972
    -9.1181  -9.0242  -8.9774  -8.9109  -8.8551  -8.7408  -8.6252  -8.5150
     1.1250   1.6148   1.7744   1.9130   2.0604   2.3158   2.3878   2.4743
     2.5915   2.7869   2.8611   2.9133   3.0045   3.0762   3.1469   3.2249
     3.3358   3.3603   3.4824   3.5841   3.6940   3.7049   3.8487   3.8902
     3.9686   3.9959   4.0646   4.0879   4.1929   4.2603   4.3114   4.3718
     4.4153   4.4703   4.5870   4.6755   4.8022   4.8858   4.9648   5.1150
     5.1978   5.2201   5.3556   5.4680   5.4911   5.5077   5.6230   5.7076
     5.8017   5.9523   6.0196   6.1583   6.2015   6.2912   6.3793   6.5137
     6.7194   6.7626   6.8426   7.1317   7.3498   7.3707   7.5005   7.7711
     7.8950   7.9764   8.0119   8.1487  13.1474  14.0811  14.8154  15.0480
    15.0971  15.2153  15.3589  15.5818  15.8696  16.2255  16.4089  16.4405
    16.9547  17.2838  17.5464  17.6389  17.9006  17.9590  18.1761  18.2487

     occupation numbers 
     1.0000   1.0000   1.0000   1.0000   1.0000   1.0000   1.0000   1.0000
     1.0000   1.0000   1.0000   1.0000   1.0000   1.0000   1.0000   1.0000
     1.0000   1.0000   1.0000   1.0000   1.0000   1.0000   1.0000   1.0000
     1.0000   1.0000   1.0000   1.0000   1.0000   1.0000   1.0000   1.0000
     1.0000   1.0000   1.0000   1.0000   1.0000   1.0000   1.0000   1.0000
     1.0000   1.0000   1.0000   1.0000   1.0000   1.0000   1.0000   1.0000
     1.0000   1.0000   1.0000   1.0000   1.0000   1.0000   1.0000   1.0000
     1.0000   1.0000   1.0000   1.0000   1.0000   1.0000   1.0000   1.0000
     1.0000   1.0000   1.0000   1.0000   1.0000   1.0000   1.0000   1.0000
     1.0000   1.0000   1.0000   1.0000   1.0000   1.0000   1.0000   1.0000
     1.0000   1.0000   1.0000   1.0000   1.0000   1.0000   1.0000   1.0000
     1.0000   1.0000   1.0000   1.0000   1.0000   1.0000   1.0000   1.0000
     1.0000   1.0000   1.0000   1.0000   0.0000   0.0000   0.0000   0.0000
     0.0000   0.0000   0.0000   0.0000   0.0000   0.0000   0.0000   0.0000
     0.0000   0.0000   0.0000   0.0000   0.0000   0.0000   0.0000   0.0000

          k = 0.2500-0.4894 0.0000 ( 14514 PWs)   bands (ev):

  -114.9057-114.8844-114.6755-114.6061 -69.1589 -69.1335 -69.1155 -69.0965
   -69.0737 -69.0514 -68.9220 -68.8889 -68.8514 -68.8437 -68.8205 -68.7765
   -10.3693 -10.1924  -9.9263  -9.7090  -9.4812  -9.4219  -9.3737  -9.2395
    -9.1720  -9.0357  -9.0055  -8.9208  -8.8446  -8.7240  -8.5979  -8.5076
     1.3720   1.5832   1.9506   2.0725   2.2030   2.2832   2.6391   2.6888
     2.7293   2.7742   2.7983   2.8849   2.9677   3.0867   3.2756   3.3197
     3.3397   3.3712   3.4945   3.6078   3.6663   3.7052   3.8003   3.8643
     3.9219   4.0801   4.0952   4.1328   4.2359   4.2700   4.2833   4.3233
     4.3699   4.4163   4.5044   4.5855   4.6028   4.7215   4.9524   5.0910
     5.1251   5.1648   5.2149   5.2590   5.4025   5.5580   5.5800   5.6891
     5.9198   5.9558   6.0780   6.1045   6.1455   6.2147   6.3816   6.4673
     6.5661   6.6347   6.7755   6.9324   7.0773   7.0969   7.3476   7.3935
     7.9523   8.0314   8.1821   8.2381  13.9083  13.9977  14.8348  14.9313
    15.5151  15.6562  15.8018  15.9094  16.1938  16.2914  16.5318  16.6115
    17.2515  17.3326  17.5735  17.6766  18.0076  18.0973  18.1774  18.2477

     occupation numbers 
     1.0000   1.0000   1.0000   1.0000   1.0000   1.0000   1.0000   1.0000
     1.0000   1.0000   1.0000   1.0000   1.0000   1.0000   1.0000   1.0000
     1.0000   1.0000   1.0000   1.0000   1.0000   1.0000   1.0000   1.0000
     1.0000   1.0000   1.0000   1.0000   1.0000   1.0000   1.0000   1.0000
     1.0000   1.0000   1.0000   1.0000   1.0000   1.0000   1.0000   1.0000
     1.0000   1.0000   1.0000   1.0000   1.0000   1.0000   1.0000   1.0000
     1.0000   1.0000   1.0000   1.0000   1.0000   1.0000   1.0000   1.0000
     1.0000   1.0000   1.0000   1.0000   1.0000   1.0000   1.0000   1.0000
     1.0000   1.0000   1.0000   1.0000   1.0000   1.0000   1.0000   1.0000
     1.0000   1.0000   1.0000   1.0000   1.0000   1.0000   1.0000   1.0000
     1.0000   1.0000   1.0000   1.0000   1.0000   1.0000   1.0000   1.0000
     1.0000   1.0000   1.0000   1.0000   1.0000   1.0000   1.0000   1.0000
     1.0000   1.0000   1.0000   1.0000   0.0000   0.0000   0.0000   0.0000
     0.0000   0.0000   0.0000   0.0000   0.0000   0.0000   0.0000   0.0000
     0.0000   0.0000   0.0000   0.0000   0.0000   0.0000   0.0000   0.0000

          k = 0.2500-0.4894 0.2314 ( 14502 PWs)   bands (ev):

  -114.9057-114.8844-114.6755-114.6061 -69.1589 -69.1335 -69.1155 -69.0965
   -69.0737 -69.0514 -68.9220 -68.8889 -68.8514 -68.8437 -68.8205 -68.7765
   -10.3061 -10.1271 -10.0484  -9.8501  -9.4636  -9.3631  -9.3125  -9.2679
    -9.1660  -9.0467  -8.9348  -8.8943  -8.8501  -8.7601  -8.6117  -8.5165
     1.4653   1.6484   1.7713   2.0374   2.2008   2.3239   2.6213   2.6430
     2.7670   2.8469   2.9092   2.9913   3.0125   3.0776   3.1397   3.1610
     3.2543   3.3891   3.5324   3.5701   3.6477   3.7037   3.8635   3.8834
     3.9120   3.9288   4.0779   4.1882   4.2132   4.2797   4.3103   4.3771
     4.4336   4.4596   4.5202   4.5516   4.6175   4.6525   4.8913   5.0453
     5.0849   5.1039   5.2322   5.3305   5.4407   5.6059   5.6691   5.7350
     5.8066   5.8885   5.9078   5.9393   6.1812   6.2260   6.3389   6.3671
     6.7286   6.7822   6.8717   7.0135   7.1096   7.1486   7.5909   7.7002
     7.8151   7.8456   8.0958   8.1534  14.0702  14.1805  14.6554  14.7522
    15.3831  15.4343  15.8912  16.0229  16.3040  16.3685  16.5642  16.6293
    17.0614  17.1354  17.5752  17.6224  18.1259  18.2419  18.2936  18.3569

     occupation numbers 
     1.0000   1.0000   1.0000   1.0000   1.0000   1.0000   1.0000   1.0000
     1.0000   1.0000   1.0000   1.0000   1.0000   1.0000   1.0000   1.0000
     1.0000   1.0000   1.0000   1.0000   1.0000   1.0000   1.0000   1.0000
     1.0000   1.0000   1.0000   1.0000   1.0000   1.0000   1.0000   1.0000
     1.0000   1.0000   1.0000   1.0000   1.0000   1.0000   1.0000   1.0000
     1.0000   1.0000   1.0000   1.0000   1.0000   1.0000   1.0000   1.0000
     1.0000   1.0000   1.0000   1.0000   1.0000   1.0000   1.0000   1.0000
     1.0000   1.0000   1.0000   1.0000   1.0000   1.0000   1.0000   1.0000
     1.0000   1.0000   1.0000   1.0000   1.0000   1.0000   1.0000   1.0000
     1.0000   1.0000   1.0000   1.0000   1.0000   1.0000   1.0000   1.0000
     1.0000   1.0000   1.0000   1.0000   1.0000   1.0000   1.0000   1.0000
     1.0000   1.0000   1.0000   1.0000   1.0000   1.0000   1.0000   1.0000
     1.0000   1.0000   1.0000   1.0000   0.0000   0.0000   0.0000   0.0000
     0.0000   0.0000   0.0000   0.0000   0.0000   0.0000   0.0000   0.0000
     0.0000   0.0000   0.0000   0.0000   0.0000   0.0000   0.0000   0.0000

          k = 0.2500-0.4894-0.2314 ( 14502 PWs)   bands (ev):

  -114.9057-114.8844-114.6755-114.6061 -69.1589 -69.1335 -69.1155 -69.0965
   -69.0737 -69.0514 -68.9220 -68.8889 -68.8514 -68.8437 -68.8205 -68.7765
   -10.3092 -10.1290 -10.0375  -9.8460  -9.4952  -9.3770  -9.3507  -9.1941
    -9.1275  -9.0185  -8.9720  -8.9217  -8.8716  -8.7504  -8.6050  -8.5136
     1.4606   1.6570   1.7832   2.0243   2.2056   2.3164   2.6137   2.6358
     2.7516   2.8534   2.9005   2.9780   2.9984   3.0853   3.1328   3.1991
     3.3285   3.3795   3.4967   3.5841   3.6436   3.7103   3.8516   3.8838
     3.9073   3.9473   4.0542   4.2095   4.2123   4.2575   4.3242   4.3770
     4.4201   4.4606   4.4803   4.5697   4.6162   4.6424   4.8945   5.0497
     5.0771   5.1939   5.2494   5.2751   5.4391   5.5905   5.6708   5.6876
     5.8077   5.8403   5.9390   5.9905   6.2002   6.2443   6.3348   6.3976
     6.6843   6.7648   6.8456   6.9935   7.1155   7.1600   7.6166   7.7055
     7.8382   7.8586   8.0929   8.1226  14.0756  14.1865  14.6547  14.7148
    15.4225  15.5300  15.8596  15.9411  16.1818  16.2357  16.7044  16.8237
    17.0608  17.1204  17.5820  17.5976  18.1163  18.2093  18.2873  18.4051

     occupation numbers 
     1.0000   1.0000   1.0000   1.0000   1.0000   1.0000   1.0000   1.0000
     1.0000   1.0000   1.0000   1.0000   1.0000   1.0000   1.0000   1.0000
     1.0000   1.0000   1.0000   1.0000   1.0000   1.0000   1.0000   1.0000
     1.0000   1.0000   1.0000   1.0000   1.0000   1.0000   1.0000   1.0000
     1.0000   1.0000   1.0000   1.0000   1.0000   1.0000   1.0000   1.0000
     1.0000   1.0000   1.0000   1.0000   1.0000   1.0000   1.0000   1.0000
     1.0000   1.0000   1.0000   1.0000   1.0000   1.0000   1.0000   1.0000
     1.0000   1.0000   1.0000   1.0000   1.0000   1.0000   1.0000   1.0000
     1.0000   1.0000   1.0000   1.0000   1.0000   1.0000   1.0000   1.0000
     1.0000   1.0000   1.0000   1.0000   1.0000   1.0000   1.0000   1.0000
     1.0000   1.0000   1.0000   1.0000   1.0000   1.0000   1.0000   1.0000
     1.0000   1.0000   1.0000   1.0000   1.0000   1.0000   1.0000   1.0000
     1.0000   1.0000   1.0000   1.0000   0.0000   0.0000   0.0000   0.0000
     0.0000   0.0000   0.0000   0.0000   0.0000   0.0000   0.0000   0.0000
     0.0000   0.0000   0.0000   0.0000   0.0000   0.0000   0.0000   0.0000

          k = 0.2500-0.2447 0.0000 ( 14502 PWs)   bands (ev):

  -114.9057-114.8844-114.6755-114.6061 -69.1589 -69.1335 -69.1155 -69.0965
   -69.0737 -69.0514 -68.9220 -68.8889 -68.8514 -68.8437 -68.8205 -68.7765
   -10.6238 -10.0978  -9.8304  -9.6246  -9.5377  -9.4559  -9.2868  -9.2416
    -9.1413  -9.0210  -8.9955  -8.9279  -8.7998  -8.7331  -8.6196  -8.5113
     0.9780   1.7078   1.7753   1.9874   2.1398   2.2542   2.2933   2.3925
     2.4943   2.8455   2.9285   3.0265   3.0938   3.1976   3.2301   3.2651
     3.4224   3.4460   3.4944   3.5318   3.5912   3.6350   3.7580   3.8262
     3.8844   3.9483   3.9846   4.0547   4.1598   4.2751   4.3264   4.4067
     4.5059   4.5722   4.5967   4.6815   4.7517   4.8118   4.8691   5.1111
     5.1458   5.2553   5.3148   5.4662   5.5711   5.6229   5.7083   5.7548
     5.8875   5.9551   6.0750   6.2180   6.2492   6.3062   6.3393   6.3994
     6.5378   6.5973   6.8975   7.1124   7.2285   7.4389   7.4704   7.5610
     7.7902   8.0947   8.1811   8.2409  12.7778  14.6035  14.8053  14.9205
    15.0262  15.1226  15.5036  15.5808  15.6942  16.3641  16.5638  16.6539
    16.7074  16.9503  17.3534  17.8465  18.1605  18.2514  18.6727  18.7124

     occupation numbers 
     1.0000   1.0000   1.0000   1.0000   1.0000   1.0000   1.0000   1.0000
     1.0000   1.0000   1.0000   1.0000   1.0000   1.0000   1.0000   1.0000
     1.0000   1.0000   1.0000   1.0000   1.0000   1.0000   1.0000   1.0000
     1.0000   1.0000   1.0000   1.0000   1.0000   1.0000   1.0000   1.0000
     1.0000   1.0000   1.0000   1.0000   1.0000   1.0000   1.0000   1.0000
     1.0000   1.0000   1.0000   1.0000   1.0000   1.0000   1.0000   1.0000
     1.0000   1.0000   1.0000   1.0000   1.0000   1.0000   1.0000   1.0000
     1.0000   1.0000   1.0000   1.0000   1.0000   1.0000   1.0000   1.0000
     1.0000   1.0000   1.0000   1.0000   1.0000   1.0000   1.0000   1.0000
     1.0000   1.0000   1.0000   1.0000   1.0000   1.0000   1.0000   1.0000
     1.0000   1.0000   1.0000   1.0000   1.0000   1.0000   1.0000   1.0000
     1.0000   1.0000   1.0000   1.0000   1.0000   1.0000   1.0000   1.0000
     1.0000   1.0000   1.0000   1.0000   0.0000   0.0000   0.0000   0.0000
     0.0000   0.0000   0.0000   0.0000   0.0000   0.0000   0.0000   0.0000
     0.0000   0.0000   0.0000   0.0000   0.0000   0.0000   0.0000   0.0000

          k = 0.2500-0.2447 0.2314 ( 14500 PWs)   bands (ev):

  -114.9057-114.8844-114.6755-114.6061 -69.1589 -69.1335 -69.1155 -69.0965
   -69.0737 -69.0514 -68.9220 -68.8889 -68.8514 -68.8437 -68.8205 -68.7765
   -10.5417 -10.2667  -9.7782  -9.6008  -9.5754  -9.4505  -9.3081  -9.1897
    -9.0832  -9.0316  -8.9616  -8.9348  -8.8388  -8.7282  -8.6415  -8.5166
     1.1428   1.5919   1.7614   1.9196   2.0510   2.3142   2.3723   2.4874
     2.5797   2.8020   2.8514   2.9284   3.0231   3.0541   3.1679   3.2314
     3.3312   3.3985   3.4815   3.5704   3.6878   3.7221   3.8534   3.9036
     3.9554   4.0315   4.0483   4.0952   4.1977   4.2303   4.2857   4.3888
     4.4275   4.5018   4.5799   4.6175   4.7914   4.8758   4.9067   5.1021
     5.1874   5.2443   5.3780   5.4621   5.4963   5.5527   5.5884   5.6811
     5.8405   5.9769   6.0693   6.1078   6.1463   6.3079   6.4261   6.4828
     6.7567   6.7902   6.8352   7.1152   7.3204   7.3617   7.5209   7.7597
     7.9137   7.9553   8.0122   8.1579  13.1418  14.0647  14.8895  15.0277
    15.1262  15.2079  15.3506  15.5351  15.9035  16.1626  16.3287  16.6160
    16.9435  17.2809  17.4498  17.6927  17.8962  17.9622  18.1747  18.2245

     occupation numbers 
     1.0000   1.0000   1.0000   1.0000   1.0000   1.0000   1.0000   1.0000
     1.0000   1.0000   1.0000   1.0000   1.0000   1.0000   1.0000   1.0000
     1.0000   1.0000   1.0000   1.0000   1.0000   1.0000   1.0000   1.0000
     1.0000   1.0000   1.0000   1.0000   1.0000   1.0000   1.0000   1.0000
     1.0000   1.0000   1.0000   1.0000   1.0000   1.0000   1.0000   1.0000
     1.0000   1.0000   1.0000   1.0000   1.0000   1.0000   1.0000   1.0000
     1.0000   1.0000   1.0000   1.0000   1.0000   1.0000   1.0000   1.0000
     1.0000   1.0000   1.0000   1.0000   1.0000   1.0000   1.0000   1.0000
     1.0000   1.0000   1.0000   1.0000   1.0000   1.0000   1.0000   1.0000
     1.0000   1.0000   1.0000   1.0000   1.0000   1.0000   1.0000   1.0000
     1.0000   1.0000   1.0000   1.0000   1.0000   1.0000   1.0000   1.0000
     1.0000   1.0000   1.0000   1.0000   1.0000   1.0000   1.0000   1.0000
     1.0000   1.0000   1.0000   1.0000   0.0000   0.0000   0.0000   0.0000
     0.0000   0.0000   0.0000   0.0000   0.0000   0.0000   0.0000   0.0000
     0.0000   0.0000   0.0000   0.0000   0.0000   0.0000   0.0000   0.0000

          k = 0.2500-0.2447-0.2314 ( 14500 PWs)   bands (ev):

  -114.9057-114.8844-114.6755-114.6061 -69.1589 -69.1335 -69.1155 -69.0965
   -69.0737 -69.0514 -68.9220 -68.8889 -68.8514 -68.8437 -68.8205 -68.7765
   -10.5447 -10.2575  -9.7773  -9.6570  -9.5364  -9.4689  -9.2266  -9.1861
    -9.1359  -9.0371  -8.9690  -8.9314  -8.8377  -8.7275  -8.6401  -8.5142
     1.1339   1.6051   1.7755   1.9344   2.0127   2.3154   2.3911   2.4812
     2.5899   2.7917   2.8524   2.9165   2.9995   3.0751   3.1661   3.2456
     3.3347   3.3663   3.4735   3.5797   3.6943   3.7086   3.8535   3.9129
     3.9637   4.0111   4.0584   4.0876   4.1961   4.2537   4.3097   4.3932
     4.4247   4.4705   4.5571   4.6593   4.8045   4.8673   4.9139   5.1101
     5.1938   5.2613   5.3463   5.4424   5.4707   5.5339   5.6125   5.7158
     5.8214   5.9626   6.0365   6.1411   6.1978   6.2920   6.4062   6.5106
     6.7246   6.7658   6.8371   7.1356   7.3504   7.3762   7.4819   7.7666
     7.8952   7.9809   8.0005   8.1593  13.1373  14.0656  14.8573  15.0706
    15.1186  15.2131  15.3628  15.5606  15.8363  16.2183  16.4187  16.4661
    16.9548  17.2790  17.5229  17.6339  17.9094  17.9532  18.1504  18.2451

     occupation numbers 
     1.0000   1.0000   1.0000   1.0000   1.0000   1.0000   1.0000   1.0000
     1.0000   1.0000   1.0000   1.0000   1.0000   1.0000   1.0000   1.0000
     1.0000   1.0000   1.0000   1.0000   1.0000   1.0000   1.0000   1.0000
     1.0000   1.0000   1.0000   1.0000   1.0000   1.0000   1.0000   1.0000
     1.0000   1.0000   1.0000   1.0000   1.0000   1.0000   1.0000   1.0000
     1.0000   1.0000   1.0000   1.0000   1.0000   1.0000   1.0000   1.0000
     1.0000   1.0000   1.0000   1.0000   1.0000   1.0000   1.0000   1.0000
     1.0000   1.0000   1.0000   1.0000   1.0000   1.0000   1.0000   1.0000
     1.0000   1.0000   1.0000   1.0000   1.0000   1.0000   1.0000   1.0000
     1.0000   1.0000   1.0000   1.0000   1.0000   1.0000   1.0000   1.0000
     1.0000   1.0000   1.0000   1.0000   1.0000   1.0000   1.0000   1.0000
     1.0000   1.0000   1.0000   1.0000   1.0000   1.0000   1.0000   1.0000
     1.0000   1.0000   1.0000   1.0000   0.0000   0.0000   0.0000   0.0000
     0.0000   0.0000   0.0000   0.0000   0.0000   0.0000   0.0000   0.0000
     0.0000   0.0000   0.0000   0.0000   0.0000   0.0000   0.0000   0.0000

          k =-0.5000 0.0000 0.0000 ( 14562 PWs)   bands (ev):

  -114.9057-114.8844-114.6755-114.6061 -69.1588 -69.1335 -69.1155 -69.0967
   -69.0737 -69.0515 -68.9220 -68.8888 -68.8515 -68.8437 -68.8206 -68.7765
   -10.4958 -10.3722  -9.6428  -9.5601  -9.5519  -9.4044  -9.3182  -9.1877
    -9.1427  -9.0910  -9.0216  -8.9831  -8.7879  -8.7495  -8.6295  -8.5322
     1.4222   1.4573   1.8171   1.9356   2.0046   2.0846   2.6139   2.6283
     2.6538   2.7509   2.8323   2.9240   3.1287   3.1593   3.2125   3.2252
     3.2809   3.3489   3.4989   3.5463   3.6570   3.6793   3.7652   3.7766
     3.8040   3.8405   3.8517   3.9036   4.0939   4.1243   4.3397   4.4146
     4.4730   4.5561   4.5965   4.6618   5.0108   5.0207   5.0508   5.0901
     5.2817   5.3494   5.4537   5.5039   5.6509   5.6629   5.6716   5.7167
     5.7293   5.8329   5.9718   6.0410   6.2693   6.3258   6.3988   6.4532
     6.5442   6.7397   6.7897   6.8215   7.4650   7.5769   7.6902   7.7624
     7.8339   7.9105   7.9600   7.9802  13.6155  13.6824  14.9160  15.0587
    15.1357  15.1764  15.4427  15.6383  15.7350  15.8550  16.3143  16.4462
    17.3419  17.3767  17.5349  17.5998  17.8333  17.8768  18.2370  18.3548

     occupation numbers 
     1.0000   1.0000   1.0000   1.0000   1.0000   1.0000   1.0000   1.0000
     1.0000   1.0000   1.0000   1.0000   1.0000   1.0000   1.0000   1.0000
     1.0000   1.0000   1.0000   1.0000   1.0000   1.0000   1.0000   1.0000
     1.0000   1.0000   1.0000   1.0000   1.0000   1.0000   1.0000   1.0000
     1.0000   1.0000   1.0000   1.0000   1.0000   1.0000   1.0000   1.0000
     1.0000   1.0000   1.0000   1.0000   1.0000   1.0000   1.0000   1.0000
     1.0000   1.0000   1.0000   1.0000   1.0000   1.0000   1.0000   1.0000
     1.0000   1.0000   1.0000   1.0000   1.0000   1.0000   1.0000   1.0000
     1.0000   1.0000   1.0000   1.0000   1.0000   1.0000   1.0000   1.0000
     1.0000   1.0000   1.0000   1.0000   1.0000   1.0000   1.0000   1.0000
     1.0000   1.0000   1.0000   1.0000   1.0000   1.0000   1.0000   1.0000
     1.0000   1.0000   1.0000   1.0000   1.0000   1.0000   1.0000   1.0000
     1.0000   1.0000   1.0000   1.0000   0.0000   0.0000   0.0000   0.0000
     0.0000   0.0000   0.0000   0.0000   0.0000   0.0000   0.0000   0.0000
     0.0000   0.0000   0.0000   0.0000   0.0000   0.0000   0.0000   0.0000

          k =-0.5000 0.0000 0.2314 ( 14518 PWs)   bands (ev):

  -114.9057-114.8844-114.6755-114.6061 -69.1588 -69.1335 -69.1155 -69.0967
   -69.0737 -69.0515 -68.9220 -68.8888 -68.8515 -68.8437 -68.8206 -68.7765
   -10.4657 -10.3339  -9.8245  -9.7563  -9.3875  -9.3607  -9.1950  -9.1781
    -9.1038  -9.0753  -9.0009  -8.9829  -8.8503  -8.7566  -8.6529  -8.5449
     1.4573   1.4996   1.7437   1.9921   2.0437   2.1328   2.5970   2.6024
     2.6179   2.7130   2.7320   2.8490   3.0370   3.0734   3.1862   3.2174
     3.3872   3.4008   3.5140   3.5818   3.6274   3.6641   3.7613   3.8344
     3.8930   3.9288   4.0553   4.0972   4.1131   4.1699   4.2458   4.3597
     4.4529   4.5331   4.6406   4.6614   4.8529   4.8696   5.0479   5.0613
     5.1497   5.1913   5.2610   5.3520   5.5416   5.5929   5.6168   5.6974
     5.8304   5.8915   6.0797   6.1638   6.2892   6.3692   6.4569   6.5440
     6.6472   6.7919   6.9153   6.9569   7.4054   7.4882   7.6889   7.7881
     7.9070   7.9518   7.9637   7.9918  13.7588  13.8463  14.3591  14.4001
    15.4463  15.5427  15.5945  15.7291  15.8119  15.8805  16.5395  16.6620
    16.8038  16.8613  17.2206  17.3114  17.9563  18.0020  18.6652  18.6900

     occupation numbers 
     1.0000   1.0000   1.0000   1.0000   1.0000   1.0000   1.0000   1.0000
     1.0000   1.0000   1.0000   1.0000   1.0000   1.0000   1.0000   1.0000
     1.0000   1.0000   1.0000   1.0000   1.0000   1.0000   1.0000   1.0000
     1.0000   1.0000   1.0000   1.0000   1.0000   1.0000   1.0000   1.0000
     1.0000   1.0000   1.0000   1.0000   1.0000   1.0000   1.0000   1.0000
     1.0000   1.0000   1.0000   1.0000   1.0000   1.0000   1.0000   1.0000
     1.0000   1.0000   1.0000   1.0000   1.0000   1.0000   1.0000   1.0000
     1.0000   1.0000   1.0000   1.0000   1.0000   1.0000   1.0000   1.0000
     1.0000   1.0000   1.0000   1.0000   1.0000   1.0000   1.0000   1.0000
     1.0000   1.0000   1.0000   1.0000   1.0000   1.0000   1.0000   1.0000
     1.0000   1.0000   1.0000   1.0000   1.0000   1.0000   1.0000   1.0000
     1.0000   1.0000   1.0000   1.0000   1.0000   1.0000   1.0000   1.0000
     1.0000   1.0000   1.0000   1.0000   0.0000   0.0000   0.0000   0.0000
     0.0000   0.0000   0.0000   0.0000   0.0000   0.0000   0.0000   0.0000
     0.0000   0.0000   0.0000   0.0000   0.0000   0.0000   0.0000   0.0000

          k =-0.5000 0.2447 0.0000 ( 14536 PWs)   bands (ev):

  -114.9057-114.8844-114.6755-114.6061 -69.1588 -69.1335 -69.1155 -69.0967
   -69.0737 -69.0515 -68.9220 -68.8888 -68.8515 -68.8437 -68.8206 -68.7765
   -10.3904 -10.2646  -9.6620  -9.6334  -9.5718  -9.4618  -9.3563  -9.3094
    -9.1091  -9.0808  -9.0672  -8.9723  -8.8244  -8.7229  -8.6042  -8.5142
     1.5647   1.6081   1.9573   2.0402   2.0820   2.2456   2.6448   2.6734
     2.6938   2.8060   3.0063   3.0225   3.1222   3.1336   3.2674   3.2918
     3.3701   3.4374   3.5246   3.5656   3.6244   3.6648   3.7249   3.7440
     3.8235   3.8874   3.8963   3.9597   4.0922   4.1124   4.2673   4.3793
     4.4196   4.4459   4.6342   4.6955   4.7116   4.7886   4.9958   5.0632
     5.1333   5.1493   5.3960   5.4587   5.5276   5.5509   5.6030   5.6434
     5.7055   5.7816   6.1503   6.1935   6.2289   6.3301   6.3333   6.3621
     6.4204   6.5866   6.7562   6.8138   7.2211   7.2489   7.3028   7.3741
     7.9217   7.9550   8.1477   8.1834  13.9667  14.0449  14.9629  15.0451
    15.3598  15.5231  15.7173  15.7544  16.1707  16.2873  16.6727  16.7676
    17.3119  17.3701  17.4601  17.5174  17.9754  18.0301  18.3809  18.4902

     occupation numbers 
     1.0000   1.0000   1.0000   1.0000   1.0000   1.0000   1.0000   1.0000
     1.0000   1.0000   1.0000   1.0000   1.0000   1.0000   1.0000   1.0000
     1.0000   1.0000   1.0000   1.0000   1.0000   1.0000   1.0000   1.0000
     1.0000   1.0000   1.0000   1.0000   1.0000   1.0000   1.0000   1.0000
     1.0000   1.0000   1.0000   1.0000   1.0000   1.0000   1.0000   1.0000
     1.0000   1.0000   1.0000   1.0000   1.0000   1.0000   1.0000   1.0000
     1.0000   1.0000   1.0000   1.0000   1.0000   1.0000   1.0000   1.0000
     1.0000   1.0000   1.0000   1.0000   1.0000   1.0000   1.0000   1.0000
     1.0000   1.0000   1.0000   1.0000   1.0000   1.0000   1.0000   1.0000
     1.0000   1.0000   1.0000   1.0000   1.0000   1.0000   1.0000   1.0000
     1.0000   1.0000   1.0000   1.0000   1.0000   1.0000   1.0000   1.0000
     1.0000   1.0000   1.0000   1.0000   1.0000   1.0000   1.0000   1.0000
     1.0000   1.0000   1.0000   1.0000   0.0000   0.0000   0.0000   0.0000
     0.0000   0.0000   0.0000   0.0000   0.0000   0.0000   0.0000   0.0000
     0.0000   0.0000   0.0000   0.0000   0.0000   0.0000   0.0000   0.0000

          k =-0.5000 0.2447 0.2314 ( 14508 PWs)   bands (ev):

  -114.9057-114.8844-114.6755-114.6061 -69.1588 -69.1335 -69.1155 -69.0967
   -69.0737 -69.0515 -68.9220 -68.8888 -68.8515 -68.8437 -68.8206 -68.7765
   -10.3623 -10.2286  -9.7604  -9.7073  -9.5981  -9.5262  -9.2523  -9.2340
    -9.1403  -9.0639  -8.9848  -8.9378  -8.8476  -8.7493  -8.6255  -8.5241
     1.6140   1.6518   1.9126   2.1151   2.1505   2.2165   2.6062   2.6641
     2.7008   2.7829   2.8802   2.9577   3.0506   3.1062   3.1509   3.1981
     3.3640   3.4185   3.4956   3.5304   3.7131   3.7526   3.7870   3.8398
     3.8944   3.9259   4.0270   4.0675   4.0899   4.1507   4.2038   4.3137
     4.5185   4.5683   4.6380   4.6459   4.7270   4.7876   4.8828   4.9042
     5.1322   5.1686   5.2895   5.3178   5.3862   5.4410   5.6176   5.6555
     5.7153   5.8140   5.9964   6.0608   6.2590   6.3432   6.3953   6.4545
     6.5476   6.6380   6.9099   6.9727   7.3179   7.3338   7.5052   7.5642
     7.7866   7.8074   8.0362   8.0741  14.1254  14.2326  14.7642  14.8071
    15.2513  15.3745  15.8709  15.9942  16.2481  16.3275  16.5751  16.7757
    17.0621  17.2111  17.4047  17.4792  17.9751  18.0076  18.5845  18.6591

     occupation numbers 
     1.0000   1.0000   1.0000   1.0000   1.0000   1.0000   1.0000   1.0000
     1.0000   1.0000   1.0000   1.0000   1.0000   1.0000   1.0000   1.0000
     1.0000   1.0000   1.0000   1.0000   1.0000   1.0000   1.0000   1.0000
     1.0000   1.0000   1.0000   1.0000   1.0000   1.0000   1.0000   1.0000
     1.0000   1.0000   1.0000   1.0000   1.0000   1.0000   1.0000   1.0000
     1.0000   1.0000   1.0000   1.0000   1.0000   1.0000   1.0000   1.0000
     1.0000   1.0000   1.0000   1.0000   1.0000   1.0000   1.0000   1.0000
     1.0000   1.0000   1.0000   1.0000   1.0000   1.0000   1.0000   1.0000
     1.0000   1.0000   1.0000   1.0000   1.0000   1.0000   1.0000   1.0000
     1.0000   1.0000   1.0000   1.0000   1.0000   1.0000   1.0000   1.0000
     1.0000   1.0000   1.0000   1.0000   1.0000   1.0000   1.0000   1.0000
     1.0000   1.0000   1.0000   1.0000   1.0000   1.0000   1.0000   1.0000
     1.0000   1.0000   1.0000   1.0000   0.0000   0.0000   0.0000   0.0000
     0.0000   0.0000   0.0000   0.0000   0.0000   0.0000   0.0000   0.0000
     0.0000   0.0000   0.0000   0.0000   0.0000   0.0000   0.0000   0.0000

          k =-0.5000 0.2447-0.2314 ( 14508 PWs)   bands (ev):

  -114.9057-114.8844-114.6755-114.6061 -69.1588 -69.1335 -69.1155 -69.0967
   -69.0737 -69.0515 -68.9220 -68.8888 -68.8515 -68.8437 -68.8206 -68.7765
   -10.3623 -10.2287  -9.7636  -9.6973  -9.6069  -9.5225  -9.2675  -9.2183
    -9.1587  -9.0318  -8.9898  -8.9489  -8.8446  -8.7518  -8.6273  -8.5224
     1.6090   1.6563   1.9142   2.1210   2.1566   2.2021   2.6011   2.6806
     2.7051   2.7676   2.8757   2.9441   3.0471   3.1216   3.1611   3.2014
     3.3702   3.4124   3.5044   3.5303   3.7046   3.7473   3.7840   3.8415
     3.8933   3.9230   4.0240   4.0540   4.0866   4.1553   4.2143   4.3153
     4.5135   4.5764   4.6190   4.6519   4.7191   4.8020   4.8895   4.9191
     5.1367   5.1933   5.2949   5.3107   5.3775   5.4387   5.6197   5.6584
     5.6994   5.7734   5.9900   6.0768   6.2534   6.3632   6.4023   6.4637
     6.5440   6.6217   6.9085   6.9652   7.3009   7.3213   7.5306   7.5821
     7.7974   7.8303   8.0169   8.0590  14.1278  14.2306  14.7777  14.8161
[...]
     atom    5 type  3   force =    -0.00579093    0.02541911   -0.07556433
     atom    6 type  3   force =    -0.04024238    0.02176576    0.05631362
     atom    7 type  3   force =    -0.01393364   -0.00638318   -0.04908194
     atom    8 type  3   force =     0.01275893    0.02079579    0.03795425
     atom    9 type  1   force =    -0.02137089    0.10169383   -0.01078832
     atom   10 type  1   force =    -0.17080039   -0.05945791    0.03619331
     atom   11 type  1   force =    -0.20090472    0.05714286    0.04616094
     atom   12 type  1   force =     0.04196069    0.11047976    0.09472230
     atom   13 type  2   force =    -0.05993830    0.04489114    0.02302724
     atom   14 type  2   force =    -0.02557166    0.00212315    0.00880715
     atom   15 type  2   force =     0.03742774   -0.10481859   -0.06670220
     atom   16 type  2   force =     0.01790157    0.11969768   -0.07697785
     atom   17 type  2   force =     0.00493572   -0.02833808    0.02403390
     atom   18 type  2   force =    -0.03148556    0.03213589   -0.04633949
     atom   19 type  2   force =     0.01007971   -0.11215798    0.01736659
     atom   20 type  2   force =     0.01818932    0.16114352   -0.00327895
     atom   21 type  2   force =    -0.00214997   -0.03336158    0.01022127
     atom   22 type  2   force =     0.04248899    0.00605860   -0.02534259
     atom   23 type  2   force =    -0.01048615    0.01466921    0.07228482
     atom   24 type  2   force =     0.00492233    0.00744691    0.09849629
     atom   25 type  2   force =    -0.02970559   -0.06061222    0.00320226
     atom   26 type  2   force =    -0.03856500    0.03871685   -0.17736968
     atom   27 type  2   force =    -0.07918340    0.02620458    0.02980203
     atom   28 type  2   force =     0.04102793   -0.05373379    0.02388181
     The ionic contribution  to forces
     atom    1 type  3   force =    -0.15661589   -0.13245443   -0.03802969
     atom    2 type  3   force =    -0.00405179    0.21031682   -0.00286603
     atom    3 type  3   force =    -0.32528373    0.25217967    0.43934608
     atom    4 type  3   force =    -0.04536194   -0.11419865    0.38940334
     atom    5 type  3   force =     0.04620425    0.08992062   -0.48384782
     atom    6 type  3   force =    -0.10853516    0.19110263    0.22813161
     atom    7 type  3   force =    -0.01484253   -0.04951719   -0.31415356
     atom    8 type  3   force =     0.15827828    0.08616897   -0.15908443
     atom    9 type  1   force =    -2.64808053    0.31923856    0.31847680
     atom   10 type  1   force =     1.57572007   -0.76587537    0.86198407
     atom   11 type  1   force =     2.96486386   -0.18841635   -0.16809593
     atom   12 type  1   force =    -3.49706216    0.82715019   -0.55608464
     atom   13 type  2   force =     0.06459692   14.74707135   -0.23950756
     atom   14 type  2   force =     0.34303682  -15.32879615   -0.06979871
     atom   15 type  2   force =    -0.14333028  -14.31358053    0.75216416
     atom   16 type  2   force =     1.02255097   14.33017796    0.78631693
     atom   17 type  2   force =    -0.30675259   15.00305409   -0.10124193
     atom   18 type  2   force =     0.84939669  -14.93370633    0.21552215
     atom   19 type  2   force =     0.17272005  -14.35519764    0.33686136
     atom   20 type  2   force =     0.51009531   13.87529657    0.47807934
     atom   21 type  2   force =     1.79137194    0.11504160   -9.83548979
     atom   22 type  2   force =    -2.14570374   -0.24394077   -9.97205087
     atom   23 type  2   force =     2.11589291    0.00740728    9.72060109
     atom   24 type  2   force =    -2.25135488    0.22060621    8.47603797
     atom   25 type  2   force =     1.89444832    0.37331140   -9.89046968
     atom   26 type  2   force =    -1.76865469   -0.04251828   -9.32486698
     atom   27 type  2   force =     2.19803264   -0.33149695    9.50886589
     atom   28 type  2   force =    -2.29157913    0.15165473    8.64379684
     The local contribution  to forces
     atom    1 type  3   force =     0.15278607    0.12435826    0.04563749
     atom    2 type  3   force =    -0.00570853   -0.19994630   -0.00286905
     atom    3 type  3   force =     0.32715805   -0.23371399   -0.41964018
     atom    4 type  3   force =     0.03123467    0.10231949   -0.37564823
     atom    5 type  3   force =    -0.02425966   -0.08953206    0.52578317
     atom    6 type  3   force =     0.11254489   -0.18747047   -0.25150733
     atom    7 type  3   force =     0.02655891    0.04444931    0.34893267
     atom    8 type  3   force =    -0.15712732   -0.08450782    0.08897974
     atom    9 type  1   force =     2.64592574   -0.41459178   -0.29422933
     atom   10 type  1   force =    -1.39931078    0.81030720   -0.89471045
     atom   11 type  1   force =    -2.74280972    0.12864339    0.10813509
     atom   12 type  1   force =     3.42459088   -0.93238846    0.46265891
     atom   13 type  2   force =    -0.00985365  -14.81480918    0.24050412
     atom   14 type  2   force =    -0.31285453   15.32609933    0.06682302
     atom   15 type  2   force =     0.10924858   14.41367208   -0.68952790
     atom   16 type  2   force =    -1.02365095  -14.45742938   -0.72971834
     atom   17 type  2   force =     0.29928715  -14.98550361    0.07285824
     atom   18 type  2   force =    -0.80827796   14.91796224   -0.17385035
     atom   19 type  2   force =    -0.17822927   14.44530302   -0.34532105
     atom   20 type  2   force =    -0.51612843  -14.03026791   -0.47827468
     atom   21 type  2   force =    -1.80131233   -0.08663507    9.83733372
     atom   22 type  2   force =     2.10886413    0.23975118    9.99840384
     atom   23 type  2   force =    -2.11516083   -0.02583724   -9.78503286
     atom   24 type  2   force =     2.26494993   -0.22155447   -8.58560820
     atom   25 type  2   force =    -1.84879262   -0.31759573    9.87574903
     atom   26 type  2   force =     1.82372281    0.00723676    9.49719016
     atom   27 type  2   force =    -2.12306765    0.29532141   -9.54359306
     atom   28 type  2   force =     2.26493960   -0.09505936   -8.68444383
     The core correction contribution to forces
     atom    1 type  3   force =     0.00070622    0.00197007    0.00065050
     atom    2 type  3   force =    -0.00106429   -0.00178903   -0.00007350
     atom    3 type  3   force =     0.00613045   -0.00149699   -0.00349563
     atom    4 type  3   force =    -0.00005491    0.00160357   -0.00219041
     atom    5 type  3   force =     0.00080084   -0.00327749    0.01020586
     atom    6 type  3   force =     0.00516472   -0.00286382   -0.00760072
     atom    7 type  3   force =     0.00187336    0.00071462    0.00688408
     atom    8 type  3   force =    -0.00173948   -0.00275142   -0.00496654
     atom    9 type  1   force =     0.00000000    0.00000000    0.00000000
     atom   10 type  1   force =     0.00000000    0.00000000    0.00000000
     atom   11 type  1   force =     0.00000000    0.00000000    0.00000000
     atom   12 type  1   force =     0.00000000    0.00000000    0.00000000
     atom   13 type  2   force =     0.00067221    0.00054626   -0.00027200
     atom   14 type  2   force =     0.00023042   -0.00072252    0.00012417
     atom   15 type  2   force =    -0.00036486    0.00049184    0.00041778
     atom   16 type  2   force =    -0.00025438   -0.00042129    0.00074556
     atom   17 type  2   force =     0.00001199    0.00105291    0.00012734
     atom   18 type  2   force =     0.00026226   -0.00117405    0.00075174
     atom   19 type  2   force =    -0.00012255    0.00080015   -0.00049078
     atom   20 type  2   force =    -0.00028142   -0.00105137   -0.00010461
     atom   21 type  2   force =    -0.00005276    0.00035859   -0.00061663
     atom   22 type  2   force =    -0.00021998   -0.00010009   -0.00010841
     atom   23 type  2   force =     0.00001885   -0.00005684   -0.00042563
     atom   24 type  2   force =    -0.00010683   -0.00017086   -0.00050587
     atom   25 type  2   force =    -0.00022318    0.00059198   -0.00019816
     atom   26 type  2   force =     0.00030705   -0.00039655    0.00137115
     atom   27 type  2   force =     0.00051665   -0.00007936    0.00009098
     atom   28 type  2   force =    -0.00031894    0.00040144    0.00022982
     The Hubbard contrib.    to forces
     atom    1 type  3   force =     0.00000000    0.00000000    0.00000000
     atom    2 type  3   force =     0.00000000    0.00000000    0.00000000
     atom    3 type  3   force =     0.00000000    0.00000000    0.00000000
     atom    4 type  3   force =     0.00000000    0.00000000    0.00000000
     atom    5 type  3   force =     0.00000000    0.00000000    0.00000000
     atom    6 type  3   force =     0.00000000    0.00000000    0.00000000
     atom    7 type  3   force =     0.00000000    0.00000000    0.00000000
     atom    8 type  3   force =     0.00000000    0.00000000    0.00000000
     atom    9 type  1   force =     0.00000000    0.00000000    0.00000000
     atom   10 type  1   force =     0.00000000    0.00000000    0.00000000
     atom   11 type  1   force =     0.00000000    0.00000000    0.00000000
     atom   12 type  1   force =     0.00000000    0.00000000    0.00000000
     atom   13 type  2   force =     0.00000000    0.00000000    0.00000000
     atom   14 type  2   force =     0.00000000    0.00000000    0.00000000
     atom   15 type  2   force =     0.00000000    0.00000000    0.00000000
     atom   16 type  2   force =     0.00000000    0.00000000    0.00000000
     atom   17 type  2   force =     0.00000000    0.00000000    0.00000000
     atom   18 type  2   force =     0.00000000    0.00000000    0.00000000
     atom   19 type  2   force =     0.00000000    0.00000000    0.00000000
     atom   20 type  2   force =     0.00000000    0.00000000    0.00000000
     atom   21 type  2   force =     0.00000000    0.00000000    0.00000000
     atom   22 type  2   force =     0.00000000    0.00000000    0.00000000
     atom   23 type  2   force =     0.00000000    0.00000000    0.00000000
     atom   24 type  2   force =     0.00000000    0.00000000    0.00000000
     atom   25 type  2   force =     0.00000000    0.00000000    0.00000000
     atom   26 type  2   force =     0.00000000    0.00000000    0.00000000
     atom   27 type  2   force =     0.00000000    0.00000000    0.00000000
     atom   28 type  2   force =     0.00000000    0.00000000    0.00000000
     The SCF correction term to forces
     atom    1 type  3   force =    -0.00000848   -0.00000552   -0.00000419
     atom    2 type  3   force =    -0.00000569    0.00000679   -0.00000027
     atom    3 type  3   force =    -0.00000495    0.00000466    0.00001742
     atom    4 type  3   force =    -0.00000721   -0.00000373    0.00000514
     atom    5 type  3   force =     0.00000952   -0.00000238   -0.00002029
     atom    6 type  3   force =     0.00000265   -0.00000382    0.00002952
     atom    7 type  3   force =     0.00000655    0.00000368   -0.00003031
     atom    8 type  3   force =     0.00000332    0.00000693    0.00001013
     atom    9 type  1   force =    -0.00006926    0.00004026    0.00000926
     atom   10 type  1   force =     0.00000089   -0.00009972   -0.00006306
     atom   11 type  1   force =     0.00002899   -0.00004660    0.00000487
     atom   12 type  1   force =    -0.00006613   -0.00000377    0.00006886
     atom   13 type  2   force =     0.00000247   -0.00000557   -0.00018176
     atom   14 type  2   force =     0.00001635    0.00001349   -0.00014689
     atom   15 type  2   force =    -0.00000705    0.00000555    0.00015968
     atom   16 type  2   force =     0.00003075    0.00000989    0.00017320
     atom   17 type  2   force =    -0.00002307    0.00000066   -0.00018437
     atom   18 type  2   force =     0.00001316    0.00000094   -0.00018188
     atom   19 type  2   force =    -0.00000900    0.00001060    0.00019566
     atom   20 type  2   force =     0.00000004    0.00000055    0.00021205
     atom   21 type  2   force =     0.00030072    0.00002639   -0.00000472
     atom   22 type  2   force =    -0.00030832   -0.00001638    0.00000633
     atom   23 type  2   force =     0.00027802   -0.00001452   -0.00000130
     atom   24 type  2   force =    -0.00029809    0.00000131   -0.00000289
     atom   25 type  2   force =     0.00031173    0.00001061   -0.00000007
     atom   26 type  2   force =    -0.00035122   -0.00001007   -0.00000781
     atom   27 type  2   force =     0.00027788    0.00000403    0.00001130
     atom   28 type  2   force =    -0.00029321   -0.00000235   -0.00000150

     Total force =     0.138708     Total SCF correction =     0.001018


     Computing stress (Cartesian axis) and pressure

          total   stress  (Ry/bohr**3)                   (kbar)     P=        5.34
   0.00002344  -0.00002146   0.00002515            3.45       -3.16        3.70
  -0.00002146   0.00003637   0.00001335           -3.16        5.35        1.96
   0.00002515   0.00001335   0.00004900            3.70        1.96        7.21

     kinetic stress (kbar)  23879.18      7.96     -2.02
                                7.96  23757.68     -2.08
                               -2.02     -2.08  23794.68

     local   stress (kbar) -43795.51     89.28   -107.80
                               89.28  -4075.61    -57.54
                             -107.80    -57.54  -4855.12

     nonloc. stress (kbar)   2283.89     -4.63      2.84
                               -4.63   2334.01      1.56
                                2.84      1.56   2310.10

     hartree stress (kbar)  42987.23     -1.36     31.22
                               -1.36  23917.76     10.40
                               31.22     10.40  24160.10

     exc-cor stress (kbar)  -6551.92     -0.59      0.24
                               -0.59  -6549.92      0.14
                                0.24      0.14  -6549.28

     corecor stress (kbar)  -1159.33      0.92     -0.39
                                0.92  -1161.87     -0.33
                               -0.39     -0.33  -1166.29

     ewald   stress (kbar) -17640.10    -94.74     79.61
                              -94.74 -38216.70     49.80
                               79.61     49.80 -37686.99

     hubbard stress (kbar)      0.00      0.00      0.00
                                0.00      0.00      0.00
                                0.00      0.00      0.00

     DFT-D   stress (kbar)      0.00      0.00      0.00
                                0.00      0.00      0.00
                                0.00      0.00      0.00

     XDM     stress (kbar)      0.00      0.00      0.00
                                0.00      0.00      0.00
                                0.00      0.00      0.00

     dft-nl  stress (kbar)      0.00      0.00      0.00
                                0.00      0.00      0.00
                                0.00      0.00      0.00

     TS-vdW  stress (kbar)      0.00      0.00      0.00
                                0.00      0.00      0.00
                                0.00      0.00      0.00


                                0.00      0.00      0.00
                                0.00      0.00      0.00


                                0.00      0.00      0.00


     init_run     :     12.02s CPU     12.30s WALL (       1 calls)
     electrons    :    284.34s CPU    289.45s WALL (       1 calls)
     forces       :      7.50s CPU      7.65s WALL (       1 calls)
     stress       :     98.23s CPU     98.72s WALL (       1 calls)

     Called by init_run:
     wfcinit      :      8.96s CPU      9.16s WALL (       1 calls)
     wfcinit:atom :      0.15s CPU      0.16s WALL (      52 calls)
     wfcinit:wfcr :      8.04s CPU      8.22s WALL (      52 calls)
     potinit      :      1.53s CPU      1.57s WALL (       1 calls)
     hinit0       :      0.93s CPU      0.95s WALL (       1 calls)

     Called by electrons:
     c_bands      :    232.83s CPU    236.58s WALL (      10 calls)
     sum_band     :     34.87s CPU     35.94s WALL (      10 calls)
     v_of_rho     :      1.59s CPU      1.68s WALL (      11 calls)
     v_h          :      0.06s CPU      0.07s WALL (      11 calls)
     v_xc         :      1.80s CPU      1.89s WALL (      13 calls)
     newd         :      5.39s CPU      5.57s WALL (      11 calls)
     PAW_pot      :     10.85s CPU     10.90s WALL (      11 calls)
     mix_rho      :      0.25s CPU      0.26s WALL (      10 calls)

     Called by c_bands:
     init_us_2    :      5.37s CPU      5.40s WALL (    1196 calls)
     init_us_2:cp :      5.36s CPU      5.40s WALL (    1196 calls)
     cegterg      :    220.83s CPU    224.46s WALL (     520 calls)

     Called by sum_band:
     sum_band:wei :      0.01s CPU      0.01s WALL (      10 calls)
     sum_band:loo :     25.80s CPU     26.34s WALL (      10 calls)
     sum_band:buf :      1.20s CPU      1.21s WALL (     520 calls)
     sum_band:ini :      2.41s CPU      2.42s WALL (     520 calls)
     sum_band:cal :      8.91s CPU      9.21s WALL (     520 calls)
     sum_band:bec :      0.25s CPU      0.25s WALL (     520 calls)
     addusdens    :      8.75s CPU      9.27s WALL (      10 calls)
     addusd:skk   :      0.09s CPU      0.09s WALL (      30 calls)
     addusd:dgemm :      1.65s CPU      2.11s WALL (      60 calls)
     addusd:qvan2 :      6.92s CPU      6.97s WALL (      60 calls)

     Called by *egterg:
     cdiaghg      :     34.10s CPU     34.47s WALL (    2451 calls)
     cegterg:over :     18.95s CPU     19.44s WALL (    1931 calls)
     cegterg:upda :     10.96s CPU     11.08s WALL (    1931 calls)
     cegterg:last :     19.65s CPU     19.89s WALL (     969 calls)
     h_psi        :    109.42s CPU    111.51s WALL (    2503 calls)
     s_psi        :     22.05s CPU     22.26s WALL (    2503 calls)
     g_psi        :      1.10s CPU      1.11s WALL (    1931 calls)

     Called by h_psi:
     h_psi:calbec :     24.33s CPU     25.09s WALL (    2503 calls)
     vloc_psi     :     59.82s CPU     60.89s WALL (    2503 calls)
     add_vuspsi   :     22.36s CPU     22.60s WALL (    2503 calls)

     General routines
     calbec       :     39.71s CPU     40.91s WALL (    3283 calls)
     fft          :      1.15s CPU      1.28s WALL (     313 calls)
     ffts         :      0.03s CPU      0.04s WALL (      42 calls)
     fftw         :     57.72s CPU     58.72s WALL (  376334 calls)
     interpolate  :      0.10s CPU      0.11s WALL (      22 calls)

     Parallel routines

     PAW routines
     PAW_pot      :     10.85s CPU     10.90s WALL (      11 calls)

     PWSCF        :   6m42.57s CPU   6m48.67s WALL


   This run was terminated on:  14:14:58  24Sep2023            

=------------------------------------------------------------------------------=
   JOB DONE.
=------------------------------------------------------------------------------=
Note: The following floating-point exceptions are signalling: IEEE_UNDERFLOW_FLAG IEEE_DENORMAL
Note: The following floating-point exceptions are signalling: IEEE_DENORMAL
Note: The following floating-point exceptions are signalling: IEEE_DENORMAL
Note: The following floating-point exceptions are signalling: IEEE_DENORMAL
Note: The following floating-point exceptions are signalling: IEEE_DENORMAL
Note: The following floating-point exceptions are signalling: IEEE_DENORMAL
Note: The following floating-point exceptions are signalling: IEEE_DENORMAL
Note: The following floating-point exceptions are signalling: IEEE_DENORMAL
Note: The following floating-point exceptions are signalling: IEEE_DENORMAL
Note: The following floating-point exceptions are signalling: IEEE_DENORMAL
Note: The following floating-point exceptions are signalling: IEEE_DENORMAL
Note: The following floating-point exceptions are signalling: IEEE_DENORMAL
