
     Program PWSCF v.6.7MaX starts on  8Dec2021 at 19:17:45 

     This program is part of the open-source Quantum ESPRESSO suite
     for quantum simulation of materials; please cite
         "P. Giannozzi et al., J. Phys.:Condens. Matter 21 395502 (2009);
         "P. Giannozzi et al., J. Phys.:Condens. Matter 29 465901 (2017);
          URL http://www.quantum-espresso.org", 
     in publications or presentations arising from this work. More details at
     http://www.quantum-espresso.org/quote

     Parallel version (MPI), running on    12 processors

     MPI processes distributed on     1 nodes
     R & G space division:  proc/nbgrp/npool/nimage =      12
     Reading input from Opt-B1-CrMn.in

     Current dimensions of program PWSCF are:
     Max number of different atomic species (ntypx) = 10
     Max number of k-points (npk) =  40000
     Max angular momentum in pseudopotentials (lmaxx) =  3

     Subspace diagonalization in iterative solution of the eigenvalue problem:
     a serial algorithm will be used


     Parallelization info
     --------------------
     sticks:   dense  smooth     PW     G-vecs:    dense   smooth      PW
     Min         149      49     16                 4149      797     150
     Max         150      50     17                 4152      799     152
     Sum        1789     595    199                49805     9577    1807



     bravais-lattice index     =            2
     lattice parameter (alat)  =       6.9303  a.u.
     unit-cell volume          =      83.2146 (a.u.)^3
     number of atoms/cell      =            2
     number of atomic types    =            2
     number of electrons       =        29.00
     number of Kohn-Sham states=           19
     kinetic-energy cutoff     =      90.0000  Ry
     charge density cutoff     =    1080.0000  Ry
     scf convergence threshold =      1.0E-08
     mixing beta               =       0.2000
     number of iterations used =            8  plain     mixing
     energy convergence thresh.=      1.0E-05
     force convergence thresh. =      1.0E-04
     press convergence thresh. =      1.0E-01
     Exchange-correlation=  SLA  PW   PBX  PBC
                           (   1   4   3   4   0   0   0)
     nstep                     =          100


     celldm(1)=   6.930317  celldm(2)=   0.000000  celldm(3)=   0.000000
     celldm(4)=   0.000000  celldm(5)=   0.000000  celldm(6)=   0.000000

     crystal axes: (cart. coord. in units of alat)
               a(1) = (  -0.500000   0.000000   0.500000 )  
               a(2) = (   0.000000   0.500000   0.500000 )  
               a(3) = (  -0.500000   0.500000   0.000000 )  

     reciprocal axes: (cart. coord. in units 2 pi/alat)
               b(1) = ( -1.000000 -1.000000  1.000000 )  
               b(2) = (  1.000000  1.000000  1.000000 )  
               b(3) = ( -1.000000  1.000000 -1.000000 )  


     PseudoPot. # 1 for Mn read from file:
     /opt/QEpot/SSSP_efficiency_pseudos/mn_pbe_v1.5.uspp.F.UPF
     MD5 check sum: 82ef2b46521d7a7d9e736dc3972e4928
     Pseudo is Ultrasoft + core correction, Zval = 15.0
     Generated by new atomic code, or converted to UPF format
     Using radial grid of  859 points,  6 beta functions with: 
                l(1) =   0
                l(2) =   0
                l(3) =   1
                l(4) =   1
                l(5) =   2
                l(6) =   2
     Q(r) pseudized with  8 coefficients,  rinner =    0.950   0.950   0.950
                                                       0.950   0.950

     PseudoPot. # 2 for Cr read from file:
     /opt/QEpot/SSSP_efficiency_pseudos/cr_pbe_v1.5.uspp.F.UPF
     MD5 check sum: 0d52af634a40206e4dee301ad30da4bf
     Pseudo is Ultrasoft + core correction, Zval = 14.0
     Generated by new atomic code, or converted to UPF format
     Using radial grid of  857 points,  6 beta functions with: 
                l(1) =   0
                l(2) =   0
                l(3) =   1
                l(4) =   1
                l(5) =   2
                l(6) =   2
     Q(r) pseudized with  8 coefficients,  rinner =    0.950   0.950   0.950
                                                       0.950   0.950

     atomic species   valence    mass     pseudopotential
        Mn            15.00    54.93800     Mn( 1.00)
        Cr            14.00    51.99610     Cr( 1.00)

     Starting magnetic structure 
     atomic species   magnetization
        Mn           0.200
        Cr           0.200

     No symmetry found



   Cartesian axes

     site n.     atom                  positions (alat units)
         1           Mn  tau(   1) = (   0.5000000   0.5000000   0.5000000  )
         2           Cr  tau(   2) = (   0.0000000   0.0000000   0.0000000  )

     number of k points=   504  Gaussian smearing, width (Ry)=  0.0100

     Number of k-points >= 100: set verbosity='high' to print them.

     Dense  grid:    49805 G-vectors     FFT dimensions: (  54,  54,  54)

     Smooth grid:     9577 G-vectors     FFT dimensions: (  30,  30,  30)

     Estimated max dynamical RAM per process >      57.33 MB

     Estimated total dynamical RAM >     687.93 MB

     Check: negative core charge=   -0.000018
     Generating pointlists ...
     new r_m :   0.2063 (alat units)  1.4294 (a.u.) for type    1
     new r_m :   0.2063 (alat units)  1.4294 (a.u.) for type    2

     Initial potential from superposition of free atoms

     starting charge   27.49990, renormalised to   29.00000

     negative rho (up, down):  5.074E-04 3.383E-04
     Starting wfcs are   23 randomized atomic wfcs

     total cpu time spent up to now is        4.0 secs

     Self-consistent Calculation

     iteration #  1     ecut=    90.00 Ry     beta= 0.20
     Davidson diagonalization with overlap
     ethr =  1.00E-02,  avg # of iterations =  2.0

     negative rho (up, down):  3.724E-04 3.744E-04

     total cpu time spent up to now is       12.6 secs

     total energy              =    -385.35261686 Ry
     estimated scf accuracy    <       2.19822759 Ry

     total magnetization       =     1.49 Bohr mag/cell
     absolute magnetization    =     1.50 Bohr mag/cell

     iteration #  2     ecut=    90.00 Ry     beta= 0.20
     Davidson diagonalization with overlap
     ethr =  7.58E-03,  avg # of iterations =  1.6

     negative rho (up, down):  4.292E-04 4.982E-04

     total cpu time spent up to now is       19.5 secs

     total energy              =    -385.52373315 Ry
     estimated scf accuracy    <       0.96014593 Ry

     total magnetization       =     1.14 Bohr mag/cell
     absolute magnetization    =     1.15 Bohr mag/cell

     iteration #  3     ecut=    90.00 Ry     beta= 0.20
     Davidson diagonalization with overlap
     ethr =  3.31E-03,  avg # of iterations =  1.0

     negative rho (up, down):  3.375E-04 7.623E-04

     total cpu time spent up to now is       26.0 secs

     total energy              =    -385.55313648 Ry
     estimated scf accuracy    <       0.28964151 Ry

     total magnetization       =     1.39 Bohr mag/cell
     absolute magnetization    =     1.40 Bohr mag/cell

     iteration #  4     ecut=    90.00 Ry     beta= 0.20
     Davidson diagonalization with overlap
     ethr =  9.99E-04,  avg # of iterations =  2.0

     negative rho (up, down):  4.138E-04 8.126E-04

     total cpu time spent up to now is       34.1 secs

     total energy              =    -385.61827371 Ry
     estimated scf accuracy    <       0.07608975 Ry

     total magnetization       =     0.92 Bohr mag/cell
     absolute magnetization    =     0.93 Bohr mag/cell

     iteration #  5     ecut=    90.00 Ry     beta= 0.20
     Davidson diagonalization with overlap
     ethr =  2.62E-04,  avg # of iterations =  2.1

     negative rho (up, down):  1.598E-04 7.489E-04

     total cpu time spent up to now is       42.1 secs

     total energy              =    -385.63003590 Ry
     estimated scf accuracy    <       0.44322476 Ry

     total magnetization       =     0.98 Bohr mag/cell
     absolute magnetization    =     1.00 Bohr mag/cell

     iteration #  6     ecut=    90.00 Ry     beta= 0.20
     Davidson diagonalization with overlap
     ethr =  2.62E-04,  avg # of iterations =  1.5

     negative rho (up, down):  1.897E-04 6.802E-04

     total cpu time spent up to now is       49.5 secs

     total energy              =    -385.65829080 Ry
     estimated scf accuracy    <       0.07544348 Ry

     total magnetization       =     0.16 Bohr mag/cell
     absolute magnetization    =     0.19 Bohr mag/cell

     iteration #  7     ecut=    90.00 Ry     beta= 0.20
     Davidson diagonalization with overlap
     ethr =  2.60E-04,  avg # of iterations =  1.0

     negative rho (up, down):  3.072E-04 5.657E-04

     total cpu time spent up to now is       56.0 secs

     total energy              =    -385.66201074 Ry
     estimated scf accuracy    <       0.01454749 Ry

     total magnetization       =     0.14 Bohr mag/cell
     absolute magnetization    =     0.16 Bohr mag/cell

     iteration #  8     ecut=    90.00 Ry     beta= 0.20
     Davidson diagonalization with overlap
     ethr =  5.02E-05,  avg # of iterations =  1.2

     negative rho (up, down):  4.087E-04 4.640E-04

     total cpu time spent up to now is       62.5 secs

     total energy              =    -385.65958738 Ry
     estimated scf accuracy    <       0.01418567 Ry

     total magnetization       =     0.06 Bohr mag/cell
     absolute magnetization    =     0.08 Bohr mag/cell

     iteration #  9     ecut=    90.00 Ry     beta= 0.20
     Davidson diagonalization with overlap
     ethr =  4.89E-05,  avg # of iterations =  1.4

     negative rho (up, down):  4.130E-04 4.573E-04

     total cpu time spent up to now is       69.2 secs

     total energy              =    -385.66103166 Ry
     estimated scf accuracy    <       0.00005526 Ry

     total magnetization       =     0.02 Bohr mag/cell
     absolute magnetization    =     0.03 Bohr mag/cell

     iteration # 10     ecut=    90.00 Ry     beta= 0.20
     Davidson diagonalization with overlap
     ethr =  1.91E-07,  avg # of iterations =  3.4

     negative rho (up, down):  4.384E-04 4.295E-04

     total cpu time spent up to now is       78.7 secs

     total energy              =    -385.66104664 Ry
     estimated scf accuracy    <       0.00014180 Ry

     total magnetization       =     0.02 Bohr mag/cell
     absolute magnetization    =     0.02 Bohr mag/cell

     iteration # 11     ecut=    90.00 Ry     beta= 0.20
     Davidson diagonalization with overlap
     ethr =  1.91E-07,  avg # of iterations =  2.6

     negative rho (up, down):  4.349E-04 4.335E-04

     total cpu time spent up to now is       87.9 secs

     total energy              =    -385.66107331 Ry
     estimated scf accuracy    <       0.00035648 Ry

     total magnetization       =    -0.00 Bohr mag/cell
     absolute magnetization    =     0.00 Bohr mag/cell

     iteration # 12     ecut=    90.00 Ry     beta= 0.20
     Davidson diagonalization with overlap
     ethr =  1.91E-07,  avg # of iterations =  2.0

     negative rho (up, down):  4.338E-04 4.353E-04

     total cpu time spent up to now is       95.8 secs

     total energy              =    -385.66110323 Ry
     estimated scf accuracy    <       0.00000316 Ry

     total magnetization       =    -0.00 Bohr mag/cell
     absolute magnetization    =     0.00 Bohr mag/cell

     iteration # 13     ecut=    90.00 Ry     beta= 0.20
     Davidson diagonalization with overlap
     ethr =  1.09E-08,  avg # of iterations =  2.1

     negative rho (up, down):  4.339E-04 4.363E-04

     total cpu time spent up to now is      103.6 secs

     total energy              =    -385.66110356 Ry
     estimated scf accuracy    <       0.00000080 Ry

     total magnetization       =     0.00 Bohr mag/cell
     absolute magnetization    =     0.00 Bohr mag/cell

     iteration # 14     ecut=    90.00 Ry     beta= 0.20
     Davidson diagonalization with overlap
     ethr =  2.74E-09,  avg # of iterations =  2.0

     negative rho (up, down):  4.350E-04 4.350E-04

     total cpu time spent up to now is      112.0 secs

     total energy              =    -385.66110378 Ry
     estimated scf accuracy    <       0.00000212 Ry

     total magnetization       =     0.00 Bohr mag/cell
     absolute magnetization    =     0.00 Bohr mag/cell

     iteration # 15     ecut=    90.00 Ry     beta= 0.20
     Davidson diagonalization with overlap
     ethr =  2.74E-09,  avg # of iterations =  1.6

     negative rho (up, down):  4.349E-04 4.350E-04

     total cpu time spent up to now is      119.1 secs

     total energy              =    -385.66110410 Ry
     estimated scf accuracy    <       0.00000007 Ry

     total magnetization       =     0.00 Bohr mag/cell
     absolute magnetization    =     0.00 Bohr mag/cell

     iteration # 16     ecut=    90.00 Ry     beta= 0.20
     Davidson diagonalization with overlap
     ethr =  2.48E-10,  avg # of iterations =  2.0

     negative rho (up, down):  4.350E-04 4.349E-04

     total cpu time spent up to now is      127.5 secs

     total energy              =    -385.66110414 Ry
     estimated scf accuracy    <       0.00000001 Ry

     total magnetization       =     0.00 Bohr mag/cell
     absolute magnetization    =     0.00 Bohr mag/cell

     iteration # 17     ecut=    90.00 Ry     beta= 0.20
     Davidson diagonalization with overlap
     ethr =  4.52E-11,  avg # of iterations =  1.9

     negative rho (up, down):  4.351E-04 4.349E-04

     total cpu time spent up to now is      135.1 secs

     total energy              =    -385.66110415 Ry
     estimated scf accuracy    <       0.00000003 Ry

     total magnetization       =     0.00 Bohr mag/cell
     absolute magnetization    =     0.00 Bohr mag/cell

     iteration # 18     ecut=    90.00 Ry     beta= 0.20
     Davidson diagonalization with overlap
     ethr =  4.52E-11,  avg # of iterations =  1.9

     negative rho (up, down):  4.350E-04 4.349E-04

     Magnetic moment per site:
     atom:    1    charge:   12.3549    magn:    0.0000    constr:    0.0000
     atom:    2    charge:   11.1816    magn:   -0.0000    constr:    0.0000

     total cpu time spent up to now is      142.5 secs

     End of self-consistent calculation

     Number of k-points >= 100: set verbosity='high' to print the bands.

     the Fermi energy is    38.2687 ev

!    total energy              =    -385.66110417 Ry
     estimated scf accuracy    <          3.7E-09 Ry
     smearing contrib. (-TS)   =      -0.00106921 Ry
     internal energy E=F+TS    =    -385.66003496 Ry

     The total energy is F=E-TS. E is the sum of the following terms:
     one-electron contribution =     -54.11212065 Ry
     hartree contribution      =      64.08316024 Ry
     xc contribution           =     -51.07041417 Ry
     ewald contribution        =    -344.56066037 Ry

     total magnetization       =    -0.00 Bohr mag/cell
     absolute magnetization    =     0.00 Bohr mag/cell

     convergence has been achieved in  18 iterations

     negative rho (up, down):  4.350E-04 4.349E-04

     Forces acting on atoms (cartesian axes, Ry/au):

     atom    1 type  1   force =    -0.00000003    0.00000020   -0.00000002
     atom    2 type  2   force =     0.00000003   -0.00000020    0.00000002

     Total force =     0.000000     Total SCF correction =     0.000002
     SCF correction compared to forces is large: reduce conv_thr to get better values


     Computing stress (Cartesian axis) and pressure


     negative rho (up, down):  4.350E-04 4.349E-04
          total   stress  (Ry/bohr**3)                   (kbar)     P=     5807.91
   0.03948137  -0.00000000  -0.00000000         5807.91       -0.00       -0.00
  -0.00000000   0.03948139  -0.00000000           -0.00     5807.91       -0.00
  -0.00000000  -0.00000000   0.03948138           -0.00       -0.00     5807.91


     BFGS Geometry Optimization
     Energy error            =      0.0E+00
     Gradient error          =      2.0E-07
     Cell gradient error     =      3.9E-02


     number of scf cycles    =   1
     number of bfgs steps    =   0

     enthalpy new            =    -385.6611041697 Ry

     new trust radius        =       0.5000000000 bohr
     new conv_thr            =       0.0000000100 Ry

     new unit-cell volume =    172.09393 a.u.^3 (    25.50169 Ang^3 )
     density =      6.96300 g/cm^3

CELL_PARAMETERS (alat=  6.93031741)
  -0.637028282  -0.000000005   0.637028316
  -0.000000002   0.637028312   0.637028308
  -0.637028281   0.637028318  -0.000000004

ATOMIC_POSITIONS (alat)
Mn            0.6370282763        0.6370283212        0.6370283056
Cr            0.0000000015       -0.0000000102        0.0000000011



     Writing output data file ./pwscf.save/
     NEW-OLD atomic charge density approx. for the potential

     Check: negative core charge=   -0.000047

     negative rho (up, down):  4.513E-04 4.512E-04
     extrapolated charge   43.20255, renormalised to   29.00000
     Generating pointlists ...

     total cpu time spent up to now is      146.2 secs

     Self-consistent Calculation

     iteration #  1     ecut=    90.00 Ry     beta= 0.20
     Davidson diagonalization with overlap
     c_bands:  1 eigenvalues not converged
     c_bands:  1 eigenvalues not converged
     c_bands:  1 eigenvalues not converged
     c_bands:  1 eigenvalues not converged
     c_bands:  1 eigenvalues not converged
     c_bands:  1 eigenvalues not converged
     c_bands:  1 eigenvalues not converged
     c_bands:  1 eigenvalues not converged
     c_bands:  1 eigenvalues not converged
     c_bands:  1 eigenvalues not converged
     c_bands:  1 eigenvalues not converged
     c_bands:  1 eigenvalues not converged
     c_bands:  1 eigenvalues not converged
     c_bands:  1 eigenvalues not converged
     c_bands:  1 eigenvalues not converged
     c_bands:  1 eigenvalues not converged
     c_bands:  1 eigenvalues not converged
     c_bands:  1 eigenvalues not converged
     c_bands:  1 eigenvalues not converged
     c_bands:  1 eigenvalues not converged
     c_bands:  1 eigenvalues not converged
     c_bands:  2 eigenvalues not converged
     c_bands:  2 eigenvalues not converged
     c_bands:  1 eigenvalues not converged
     c_bands:  1 eigenvalues not converged
     c_bands:  1 eigenvalues not converged
     c_bands:  2 eigenvalues not converged
     c_bands:  1 eigenvalues not converged
     c_bands:  1 eigenvalues not converged
     c_bands:  1 eigenvalues not converged
     c_bands:  1 eigenvalues not converged
     c_bands:  1 eigenvalues not converged
     c_bands:  2 eigenvalues not converged
     c_bands:  2 eigenvalues not converged
     c_bands:  1 eigenvalues not converged
     c_bands:  1 eigenvalues not converged
     c_bands:  2 eigenvalues not converged
     c_bands:  1 eigenvalues not converged
     c_bands:  1 eigenvalues not converged
     c_bands:  1 eigenvalues not converged
     c_bands:  1 eigenvalues not converged
     c_bands:  1 eigenvalues not converged
     c_bands:  1 eigenvalues not converged
     c_bands:  1 eigenvalues not converged
     c_bands:  1 eigenvalues not converged
     c_bands:  2 eigenvalues not converged
     c_bands:  1 eigenvalues not converged
     c_bands:  2 eigenvalues not converged
     c_bands:  2 eigenvalues not converged
     c_bands:  1 eigenvalues not converged
     c_bands:  1 eigenvalues not converged
     c_bands:  1 eigenvalues not converged
     c_bands:  1 eigenvalues not converged
     c_bands:  1 eigenvalues not converged
     c_bands:  2 eigenvalues not converged
     c_bands:  1 eigenvalues not converged
     c_bands:  1 eigenvalues not converged
     c_bands:  2 eigenvalues not converged
     c_bands:  2 eigenvalues not converged
     c_bands:  1 eigenvalues not converged
     c_bands:  1 eigenvalues not converged
     c_bands:  1 eigenvalues not converged
     c_bands:  2 eigenvalues not converged
     c_bands:  2 eigenvalues not converged
     c_bands:  1 eigenvalues not converged
     c_bands:  1 eigenvalues not converged
     c_bands:  1 eigenvalues not converged
     c_bands:  1 eigenvalues not converged
     c_bands:  1 eigenvalues not converged
     c_bands:  2 eigenvalues not converged
     c_bands:  1 eigenvalues not converged
     c_bands:  1 eigenvalues not converged
     c_bands:  1 eigenvalues not converged
     c_bands:  1 eigenvalues not converged
     c_bands:  1 eigenvalues not converged
     c_bands:  1 eigenvalues not converged
     c_bands:  1 eigenvalues not converged
     c_bands:  2 eigenvalues not converged
     c_bands:  1 eigenvalues not converged
     c_bands:  1 eigenvalues not converged
     c_bands:  1 eigenvalues not converged
     c_bands:  1 eigenvalues not converged
     c_bands:  1 eigenvalues not converged
     c_bands:  1 eigenvalues not converged
     c_bands:  1 eigenvalues not converged
     c_bands:  2 eigenvalues not converged
     c_bands:  1 eigenvalues not converged
     c_bands:  1 eigenvalues not converged
     c_bands:  2 eigenvalues not converged
     c_bands:  1 eigenvalues not converged
     c_bands:  2 eigenvalues not converged
     c_bands:  1 eigenvalues not converged
     c_bands:  1 eigenvalues not converged
     c_bands:  1 eigenvalues not converged
     c_bands:  1 eigenvalues not converged
     c_bands:  1 eigenvalues not converged
     c_bands:  1 eigenvalues not converged
     c_bands:  1 eigenvalues not converged
     c_bands:  1 eigenvalues not converged
     c_bands:  1 eigenvalues not converged
     c_bands:  1 eigenvalues not converged
     c_bands:  1 eigenvalues not converged
     c_bands:  1 eigenvalues not converged
     c_bands:  2 eigenvalues not converged
     c_bands:  1 eigenvalues not converged
     c_bands:  1 eigenvalues not converged
     c_bands:  1 eigenvalues not converged
     c_bands:  1 eigenvalues not converged
     c_bands:  1 eigenvalues not converged
     c_bands:  1 eigenvalues not converged
     c_bands:  1 eigenvalues not converged
     c_bands:  2 eigenvalues not converged
     c_bands:  1 eigenvalues not converged
     c_bands:  1 eigenvalues not converged
     c_bands:  1 eigenvalues not converged
     c_bands:  2 eigenvalues not converged
     c_bands:  1 eigenvalues not converged
     c_bands:  1 eigenvalues not converged
     c_bands:  1 eigenvalues not converged
     c_bands:  1 eigenvalues not converged
     c_bands:  1 eigenvalues not converged
     c_bands:  1 eigenvalues not converged
     c_bands:  1 eigenvalues not converged
     c_bands:  2 eigenvalues not converged
     c_bands:  2 eigenvalues not converged
     c_bands:  1 eigenvalues not converged
     c_bands:  1 eigenvalues not converged
     c_bands:  1 eigenvalues not converged
     c_bands:  1 eigenvalues not converged
     c_bands:  1 eigenvalues not converged
     c_bands:  2 eigenvalues not converged
     c_bands:  1 eigenvalues not converged
     c_bands:  1 eigenvalues not converged
     c_bands:  1 eigenvalues not converged
     c_bands:  2 eigenvalues not converged
     c_bands:  2 eigenvalues not converged
     c_bands:  1 eigenvalues not converged
     c_bands:  1 eigenvalues not converged
     c_bands:  1 eigenvalues not converged
     c_bands:  1 eigenvalues not converged
     c_bands:  2 eigenvalues not converged
     c_bands:  1 eigenvalues not converged
     c_bands:  1 eigenvalues not converged
     c_bands:  1 eigenvalues not converged
     c_bands:  1 eigenvalues not converged
     c_bands:  1 eigenvalues not converged
     c_bands:  2 eigenvalues not converged
     c_bands:  1 eigenvalues not converged
     c_bands:  1 eigenvalues not converged
     c_bands:  1 eigenvalues not converged
     c_bands:  1 eigenvalues not converged
     c_bands:  1 eigenvalues not converged
     c_bands:  2 eigenvalues not converged
     c_bands:  1 eigenvalues not converged
     c_bands:  1 eigenvalues not converged
     c_bands:  1 eigenvalues not converged
     c_bands:  1 eigenvalues not converged
     c_bands:  2 eigenvalues not converged
     c_bands:  2 eigenvalues not converged
     c_bands:  1 eigenvalues not converged
     c_bands:  1 eigenvalues not converged
     c_bands:  1 eigenvalues not converged
     c_bands:  1 eigenvalues not converged
     c_bands:  1 eigenvalues not converged
     c_bands:  1 eigenvalues not converged
     c_bands:  1 eigenvalues not converged
     c_bands:  2 eigenvalues not converged
     c_bands:  2 eigenvalues not converged
     c_bands:  1 eigenvalues not converged
     c_bands:  1 eigenvalues not converged
     c_bands:  1 eigenvalues not converged
     c_bands:  1 eigenvalues not converged
     c_bands:  1 eigenvalues not converged
     c_bands:  1 eigenvalues not converged
     c_bands:  1 eigenvalues not converged
     c_bands:  2 eigenvalues not converged
     c_bands:  2 eigenvalues not converged
     c_bands:  1 eigenvalues not converged
     c_bands:  1 eigenvalues not converged
     c_bands:  1 eigenvalues not converged
     c_bands:  1 eigenvalues not converged
     c_bands:  1 eigenvalues not converged
     c_bands:  1 eigenvalues not converged
     c_bands:  1 eigenvalues not converged
     c_bands:  2 eigenvalues not converged
     c_bands:  1 eigenvalues not converged
     c_bands:  1 eigenvalues not converged
     c_bands:  1 eigenvalues not converged
     c_bands:  1 eigenvalues not converged
     c_bands:  2 eigenvalues not converged
     c_bands:  1 eigenvalues not converged
     c_bands:  1 eigenvalues not converged
     c_bands:  2 eigenvalues not converged
     c_bands:  1 eigenvalues not converged
     c_bands:  1 eigenvalues not converged
     c_bands:  1 eigenvalues not converged
     c_bands:  1 eigenvalues not converged
     c_bands:  1 eigenvalues not converged
     c_bands:  2 eigenvalues not converged
     c_bands:  2 eigenvalues not converged
     c_bands:  1 eigenvalues not converged
     c_bands:  1 eigenvalues not converged
     c_bands:  2 eigenvalues not converged
     c_bands:  1 eigenvalues not converged
     c_bands:  1 eigenvalues not converged
     c_bands:  2 eigenvalues not converged
     c_bands:  1 eigenvalues not converged
     c_bands:  1 eigenvalues not converged
     c_bands:  2 eigenvalues not converged
     c_bands:  1 eigenvalues not converged
     c_bands:  1 eigenvalues not converged
     c_bands:  1 eigenvalues not converged
     c_bands:  1 eigenvalues not converged
     c_bands:  1 eigenvalues not converged
     c_bands:  1 eigenvalues not converged
     c_bands:  1 eigenvalues not converged
     c_bands:  2 eigenvalues not converged
     c_bands:  1 eigenvalues not converged
     c_bands:  1 eigenvalues not converged
     c_bands:  1 eigenvalues not converged
     c_bands:  2 eigenvalues not converged
     c_bands:  1 eigenvalues not converged
     c_bands:  1 eigenvalues not converged
     c_bands:  1 eigenvalues not converged
     c_bands:  1 eigenvalues not converged
     c_bands:  1 eigenvalues not converged
     c_bands:  1 eigenvalues not converged
     c_bands:  1 eigenvalues not converged
     c_bands:  2 eigenvalues not converged
     c_bands:  1 eigenvalues not converged
     c_bands:  1 eigenvalues not converged
     c_bands:  1 eigenvalues not converged
     c_bands:  1 eigenvalues not converged
     c_bands:  2 eigenvalues not converged
     c_bands:  1 eigenvalues not converged
     c_bands:  1 eigenvalues not converged
     c_bands:  1 eigenvalues not converged
     c_bands:  1 eigenvalues not converged
     c_bands:  1 eigenvalues not converged
     c_bands:  1 eigenvalues not converged
     c_bands:  1 eigenvalues not converged
     c_bands:  1 eigenvalues not converged
     c_bands:  1 eigenvalues not converged
     c_bands:  1 eigenvalues not converged
     c_bands:  1 eigenvalues not converged
     c_bands:  1 eigenvalues not converged
     c_bands:  1 eigenvalues not converged
     c_bands:  1 eigenvalues not converged
     c_bands:  1 eigenvalues not converged
     c_bands:  1 eigenvalues not converged
     c_bands:  1 eigenvalues not converged
     c_bands:  1 eigenvalues not converged
     c_bands:  1 eigenvalues not converged
     c_bands:  1 eigenvalues not converged
     c_bands:  1 eigenvalues not converged
     c_bands:  1 eigenvalues not converged
     c_bands:  1 eigenvalues not converged
     c_bands:  1 eigenvalues not converged
     c_bands:  1 eigenvalues not converged
     c_bands:  1 eigenvalues not converged
     c_bands:  2 eigenvalues not converged
     c_bands:  2 eigenvalues not converged
     c_bands:  1 eigenvalues not converged
     c_bands:  1 eigenvalues not converged
     c_bands:  1 eigenvalues not converged
     c_bands:  2 eigenvalues not converged
     c_bands:  1 eigenvalues not converged
     c_bands:  1 eigenvalues not converged
     c_bands:  1 eigenvalues not converged
     c_bands:  1 eigenvalues not converged
     c_bands:  1 eigenvalues not converged
     c_bands:  2 eigenvalues not converged
     c_bands:  2 eigenvalues not converged
     c_bands:  1 eigenvalues not converged
     c_bands:  1 eigenvalues not converged
     c_bands:  2 eigenvalues not converged
     c_bands:  1 eigenvalues not converged
     c_bands:  1 eigenvalues not converged
     c_bands:  1 eigenvalues not converged
     c_bands:  1 eigenvalues not converged
     c_bands:  1 eigenvalues not converged
     c_bands:  1 eigenvalues not converged
     c_bands:  1 eigenvalues not converged
     c_bands:  1 eigenvalues not converged
     c_bands:  2 eigenvalues not converged
     c_bands:  1 eigenvalues not converged
     c_bands:  2 eigenvalues not converged
     c_bands:  2 eigenvalues not converged
     c_bands:  1 eigenvalues not converged
     c_bands:  1 eigenvalues not converged
     c_bands:  1 eigenvalues not converged
     c_bands:  1 eigenvalues not converged
     c_bands:  1 eigenvalues not converged
     c_bands:  2 eigenvalues not converged
     c_bands:  1 eigenvalues not converged
     c_bands:  1 eigenvalues not converged
     c_bands:  2 eigenvalues not converged
     c_bands:  2 eigenvalues not converged
     c_bands:  1 eigenvalues not converged
     c_bands:  1 eigenvalues not converged
     c_bands:  1 eigenvalues not converged
     c_bands:  2 eigenvalues not converged
     c_bands:  2 eigenvalues not converged
     c_bands:  1 eigenvalues not converged
     c_bands:  1 eigenvalues not converged
     c_bands:  1 eigenvalues not converged
     c_bands:  1 eigenvalues not converged
     c_bands:  1 eigenvalues not converged
     c_bands:  2 eigenvalues not converged
     c_bands:  1 eigenvalues not converged
     c_bands:  1 eigenvalues not converged
     c_bands:  1 eigenvalues not converged
     c_bands:  1 eigenvalues not converged
     c_bands:  1 eigenvalues not converged
     c_bands:  1 eigenvalues not converged
     c_bands:  1 eigenvalues not converged
     c_bands:  2 eigenvalues not converged
     c_bands:  1 eigenvalues not converged
     c_bands:  1 eigenvalues not converged
     c_bands:  1 eigenvalues not converged
     c_bands:  1 eigenvalues not converged
     c_bands:  1 eigenvalues not converged
     c_bands:  1 eigenvalues not converged
     c_bands:  1 eigenvalues not converged
     c_bands:  2 eigenvalues not converged
     c_bands:  1 eigenvalues not converged
     c_bands:  1 eigenvalues not converged
     c_bands:  2 eigenvalues not converged
     c_bands:  1 eigenvalues not converged
     c_bands:  2 eigenvalues not converged
     c_bands:  1 eigenvalues not converged
     c_bands:  1 eigenvalues not converged
     c_bands:  1 eigenvalues not converged
     c_bands:  1 eigenvalues not converged
     c_bands:  1 eigenvalues not converged
     c_bands:  1 eigenvalues not converged
     c_bands:  1 eigenvalues not converged
     c_bands:  1 eigenvalues not converged
     c_bands:  1 eigenvalues not converged
     c_bands:  1 eigenvalues not converged
     c_bands:  1 eigenvalues not converged
     c_bands:  1 eigenvalues not converged
     c_bands:  2 eigenvalues not converged
     c_bands:  1 eigenvalues not converged
     c_bands:  1 eigenvalues not converged
     c_bands:  1 eigenvalues not converged
     c_bands:  1 eigenvalues not converged
     c_bands:  1 eigenvalues not converged
     c_bands:  1 eigenvalues not converged
     c_bands:  1 eigenvalues not converged
     c_bands:  2 eigenvalues not converged
     c_bands:  1 eigenvalues not converged
     c_bands:  1 eigenvalues not converged
     c_bands:  1 eigenvalues not converged
     c_bands:  2 eigenvalues not converged
     c_bands:  1 eigenvalues not converged
     c_bands:  1 eigenvalues not converged
     c_bands:  1 eigenvalues not converged
     c_bands:  1 eigenvalues not converged
     c_bands:  1 eigenvalues not converged
     c_bands:  1 eigenvalues not converged
     c_bands:  1 eigenvalues not converged
     c_bands:  2 eigenvalues not converged
     c_bands:  2 eigenvalues not converged
     c_bands:  1 eigenvalues not converged
     c_bands:  1 eigenvalues not converged
     c_bands:  1 eigenvalues not converged
     c_bands:  1 eigenvalues not converged
     c_bands:  1 eigenvalues not converged
     c_bands:  2 eigenvalues not converged
     c_bands:  1 eigenvalues not converged
     c_bands:  1 eigenvalues not converged
     c_bands:  1 eigenvalues not converged
     c_bands:  2 eigenvalues not converged
     c_bands:  2 eigenvalues not converged
     c_bands:  1 eigenvalues not converged
     c_bands:  1 eigenvalues not converged
     c_bands:  1 eigenvalues not converged
     c_bands:  1 eigenvalues not converged
     c_bands:  2 eigenvalues not converged
     c_bands:  1 eigenvalues not converged
     c_bands:  1 eigenvalues not converged
     c_bands:  1 eigenvalues not converged
     c_bands:  1 eigenvalues not converged
     c_bands:  1 eigenvalues not converged
     c_bands:  2 eigenvalues not converged
     c_bands:  1 eigenvalues not converged
     c_bands:  1 eigenvalues not converged
     c_bands:  1 eigenvalues not converged
     c_bands:  1 eigenvalues not converged
     c_bands:  1 eigenvalues not converged
     c_bands:  2 eigenvalues not converged
     c_bands:  1 eigenvalues not converged
     c_bands:  1 eigenvalues not converged
     c_bands:  1 eigenvalues not converged
     c_bands:  1 eigenvalues not converged
     c_bands:  2 eigenvalues not converged
     c_bands:  2 eigenvalues not converged
     c_bands:  1 eigenvalues not converged
     c_bands:  1 eigenvalues not converged
     c_bands:  1 eigenvalues not converged
     c_bands:  1 eigenvalues not converged
     c_bands:  1 eigenvalues not converged
     c_bands:  1 eigenvalues not converged
     c_bands:  1 eigenvalues not converged
     c_bands:  2 eigenvalues not converged
     c_bands:  2 eigenvalues not converged
     c_bands:  1 eigenvalues not converged
     c_bands:  1 eigenvalues not converged
     c_bands:  1 eigenvalues not converged
     c_bands:  1 eigenvalues not converged
     c_bands:  1 eigenvalues not converged
     c_bands:  1 eigenvalues not converged
     c_bands:  1 eigenvalues not converged
     c_bands:  2 eigenvalues not converged
     c_bands:  2 eigenvalues not converged
     c_bands:  1 eigenvalues not converged
     c_bands:  1 eigenvalues not converged
     c_bands:  1 eigenvalues not converged
     c_bands:  1 eigenvalues not converged
     c_bands:  1 eigenvalues not converged
     c_bands:  1 eigenvalues not converged
     c_bands:  1 eigenvalues not converged
     c_bands:  2 eigenvalues not converged
     c_bands:  1 eigenvalues not converged
     c_bands:  1 eigenvalues not converged
     c_bands:  1 eigenvalues not converged
     c_bands:  1 eigenvalues not converged
     c_bands:  2 eigenvalues not converged
     c_bands:  1 eigenvalues not converged
     c_bands:  1 eigenvalues not converged
     c_bands:  2 eigenvalues not converged
     c_bands:  1 eigenvalues not converged
     c_bands:  1 eigenvalues not converged
     c_bands:  1 eigenvalues not converged
     c_bands:  1 eigenvalues not converged
     c_bands:  1 eigenvalues not converged
     c_bands:  2 eigenvalues not converged
     c_bands:  2 eigenvalues not converged
     c_bands:  1 eigenvalues not converged
     c_bands:  1 eigenvalues not converged
     c_bands:  2 eigenvalues not converged
     c_bands:  1 eigenvalues not converged
     c_bands:  1 eigenvalues not converged
     c_bands:  2 eigenvalues not converged
     c_bands:  1 eigenvalues not converged
     c_bands:  1 eigenvalues not converged
     c_bands:  2 eigenvalues not converged
     c_bands:  1 eigenvalues not converged
     c_bands:  1 eigenvalues not converged
     c_bands:  1 eigenvalues not converged
     c_bands:  1 eigenvalues not converged
     c_bands:  1 eigenvalues not converged
     c_bands:  1 eigenvalues not converged
     c_bands:  1 eigenvalues not converged
     c_bands:  2 eigenvalues not converged
     c_bands:  1 eigenvalues not converged
     c_bands:  1 eigenvalues not converged
     c_bands:  1 eigenvalues not converged
     c_bands:  2 eigenvalues not converged
     c_bands:  1 eigenvalues not converged
     c_bands:  1 eigenvalues not converged
     c_bands:  1 eigenvalues not converged
     c_bands:  1 eigenvalues not converged
     c_bands:  1 eigenvalues not converged
     c_bands:  1 eigenvalues not converged
     c_bands:  1 eigenvalues not converged
     c_bands:  1 eigenvalues not converged
     c_bands:  2 eigenvalues not converged
     c_bands:  1 eigenvalues not converged
     c_bands:  1 eigenvalues not converged
     c_bands:  1 eigenvalues not converged
     c_bands:  1 eigenvalues not converged
     c_bands:  2 eigenvalues not converged
     c_bands:  1 eigenvalues not converged
     c_bands:  1 eigenvalues not converged
     c_bands:  1 eigenvalues not converged
     c_bands:  1 eigenvalues not converged
     ethr =  1.00E-06,  avg # of iterations = 18.6

     negative rho (up, down):  8.980E-04 8.980E-04

     total cpu time spent up to now is      185.6 secs

     total energy              =    -356.57236947 Ry
     estimated scf accuracy    <      22.98789118 Ry

     total magnetization       =    -0.00 Bohr mag/cell
     absolute magnetization    =     0.00 Bohr mag/cell

     iteration #  2     ecut=    90.00 Ry     beta= 0.20
     Davidson diagonalization with overlap
     ethr =  1.00E-02,  avg # of iterations =  6.3

     negative rho (up, down):  7.505E-04 7.503E-04

     total cpu time spent up to now is      201.0 secs

     total energy              =    -391.11848607 Ry
     estimated scf accuracy    <      42.45684269 Ry

     total magnetization       =    -0.00 Bohr mag/cell
     absolute magnetization    =     0.00 Bohr mag/cell

     iteration #  3     ecut=    90.00 Ry     beta= 0.20
     Davidson diagonalization with overlap
     ethr =  1.00E-02,  avg # of iterations =  2.0

     negative rho (up, down):  3.608E-04 3.606E-04

     total cpu time spent up to now is      208.5 secs

     total energy              =    -390.39273017 Ry
     estimated scf accuracy    <      27.34215247 Ry

     total magnetization       =     0.00 Bohr mag/cell
     absolute magnetization    =     0.00 Bohr mag/cell

     iteration #  4     ecut=    90.00 Ry     beta= 0.20
     Davidson diagonalization with overlap
     ethr =  1.00E-02,  avg # of iterations =  1.0

     negative rho (up, down):  9.922E-05 9.920E-05

     total cpu time spent up to now is      214.9 secs

     total energy              =    -383.91965692 Ry
     estimated scf accuracy    <      25.37823408 Ry

     total magnetization       =    -0.00 Bohr mag/cell
     absolute magnetization    =     0.00 Bohr mag/cell

     iteration #  5     ecut=    90.00 Ry     beta= 0.20
     Davidson diagonalization with overlap
     ethr =  1.00E-02,  avg # of iterations =  3.5

     negative rho (up, down):  9.096E-05 9.093E-05

     total cpu time spent up to now is      225.2 secs

     total energy              =    -387.30162749 Ry
     estimated scf accuracy    <      19.69902588 Ry

     total magnetization       =     0.00 Bohr mag/cell
     absolute magnetization    =     0.00 Bohr mag/cell

     iteration #  6     ecut=    90.00 Ry     beta= 0.20
     Davidson diagonalization with overlap
     ethr =  1.00E-02,  avg # of iterations =  1.7

     negative rho (up, down):  1.104E-04 1.104E-04

     total cpu time spent up to now is      232.2 secs

     total energy              =    -387.09558262 Ry
     estimated scf accuracy    <      15.34040141 Ry

     total magnetization       =    -0.00 Bohr mag/cell
     absolute magnetization    =     0.00 Bohr mag/cell

     iteration #  7     ecut=    90.00 Ry     beta= 0.20
     Davidson diagonalization with overlap
     ethr =  1.00E-02,  avg # of iterations =  1.0

     negative rho (up, down):  1.186E-04 1.186E-04

     total cpu time spent up to now is      238.7 secs

     total energy              =    -386.97382363 Ry
     estimated scf accuracy    <      11.32083666 Ry

     total magnetization       =    -0.00 Bohr mag/cell
     absolute magnetization    =     0.00 Bohr mag/cell

     iteration #  8     ecut=    90.00 Ry     beta= 0.20
     Davidson diagonalization with overlap
     ethr =  1.00E-02,  avg # of iterations =  1.0

     negative rho (up, down):  1.240E-04 1.240E-04

     total cpu time spent up to now is      245.1 secs

     total energy              =    -386.85383979 Ry
     estimated scf accuracy    <       9.15433513 Ry

     total magnetization       =    -0.00 Bohr mag/cell
     absolute magnetization    =     0.00 Bohr mag/cell

     iteration #  9     ecut=    90.00 Ry     beta= 0.20
     Davidson diagonalization with overlap
     ethr =  1.00E-02,  avg # of iterations =  1.0

     negative rho (up, down):  1.472E-04 1.471E-04

     total cpu time spent up to now is      251.6 secs

     total energy              =    -386.20987388 Ry
     estimated scf accuracy    <       7.39311821 Ry

     total magnetization       =    -0.00 Bohr mag/cell
     absolute magnetization    =     0.00 Bohr mag/cell

     iteration # 10     ecut=    90.00 Ry     beta= 0.20
     Davidson diagonalization with overlap
     ethr =  1.00E-02,  avg # of iterations =  1.6

     negative rho (up, down):  2.664E-04 2.659E-04

     total cpu time spent up to now is      258.4 secs

     total energy              =    -386.81959817 Ry
     estimated scf accuracy    <       1.21672687 Ry

     total magnetization       =    -0.00 Bohr mag/cell
     absolute magnetization    =     0.00 Bohr mag/cell

     iteration # 11     ecut=    90.00 Ry     beta= 0.20
     Davidson diagonalization with overlap
     ethr =  4.20E-03,  avg # of iterations =  2.0

     negative rho (up, down):  2.207E-04 2.202E-04

     total cpu time spent up to now is      265.8 secs

     total energy              =    -386.76943783 Ry
     estimated scf accuracy    <       6.84830025 Ry

     total magnetization       =    -0.00 Bohr mag/cell
     absolute magnetization    =     0.00 Bohr mag/cell

     iteration # 12     ecut=    90.00 Ry     beta= 0.20
     Davidson diagonalization with overlap
     ethr =  4.20E-03,  avg # of iterations =  1.0

     negative rho (up, down):  2.978E-04 2.973E-04

     total cpu time spent up to now is      272.2 secs

     total energy              =    -387.09378223 Ry
     estimated scf accuracy    <       4.32451475 Ry

     total magnetization       =    -0.00 Bohr mag/cell
     absolute magnetization    =     0.00 Bohr mag/cell

     iteration # 13     ecut=    90.00 Ry     beta= 0.20
     Davidson diagonalization with overlap
     ethr =  4.20E-03,  avg # of iterations =  1.0

     negative rho (up, down):  1.582E-04 1.581E-04

     total cpu time spent up to now is      278.6 secs

     total energy              =    -386.19957716 Ry
     estimated scf accuracy    <       8.65435399 Ry

     total magnetization       =    -0.00 Bohr mag/cell
     absolute magnetization    =     0.00 Bohr mag/cell

     iteration # 14     ecut=    90.00 Ry     beta= 0.20
     Davidson diagonalization with overlap
     ethr =  4.20E-03,  avg # of iterations =  1.7

     negative rho (up, down):  1.561E-04 1.560E-04

     total cpu time spent up to now is      285.5 secs

     total energy              =    -386.55158500 Ry
     estimated scf accuracy    <       0.05211801 Ry

     total magnetization       =    -0.00 Bohr mag/cell
     absolute magnetization    =     0.00 Bohr mag/cell

     iteration # 15     ecut=    90.00 Ry     beta= 0.20
     Davidson diagonalization with overlap
     ethr =  1.80E-04,  avg # of iterations =  4.7

     negative rho (up, down):  1.472E-04 1.472E-04

     total cpu time spent up to now is      297.0 secs

     total energy              =    -386.86902372 Ry
     estimated scf accuracy    <       3.65386952 Ry

     total magnetization       =    -0.00 Bohr mag/cell
     absolute magnetization    =     0.00 Bohr mag/cell

     iteration # 16     ecut=    90.00 Ry     beta= 0.20
     Davidson diagonalization with overlap
     ethr =  1.80E-04,  avg # of iterations =  3.8

     negative rho (up, down):  1.482E-04 1.481E-04

     total cpu time spent up to now is      307.6 secs

     total energy              =    -386.79528915 Ry
     estimated scf accuracy    <       5.99014134 Ry

     total magnetization       =    -0.00 Bohr mag/cell
     absolute magnetization    =     0.00 Bohr mag/cell

     iteration # 17     ecut=    90.00 Ry     beta= 0.20
     Davidson diagonalization with overlap
     ethr =  1.80E-04,  avg # of iterations =  1.1

     negative rho (up, down):  1.638E-04 1.638E-04

     total cpu time spent up to now is      314.1 secs

     total energy              =    -386.64247777 Ry
     estimated scf accuracy    <       4.43863751 Ry

     total magnetization       =    -0.00 Bohr mag/cell
     absolute magnetization    =     0.00 Bohr mag/cell

     iteration # 18     ecut=    90.00 Ry     beta= 0.20
     Davidson diagonalization with overlap
     ethr =  1.80E-04,  avg # of iterations =  3.8

     negative rho (up, down):  2.540E-04 2.537E-04

     total cpu time spent up to now is      324.0 secs

     total energy              =    -386.60583551 Ry
     estimated scf accuracy    <       2.68101855 Ry

     total magnetization       =    -0.00 Bohr mag/cell
     absolute magnetization    =     0.00 Bohr mag/cell

     iteration # 19     ecut=    90.00 Ry     beta= 0.20
     Davidson diagonalization with overlap
     ethr =  1.80E-04,  avg # of iterations =  1.0

     negative rho (up, down):  2.536E-04 2.533E-04

     total cpu time spent up to now is      330.5 secs

     total energy              =    -386.58955348 Ry
     estimated scf accuracy    <       1.39180917 Ry

     total magnetization       =    -0.00 Bohr mag/cell
     absolute magnetization    =     0.00 Bohr mag/cell

     iteration # 20     ecut=    90.00 Ry     beta= 0.20
     Davidson diagonalization with overlap
     ethr =  1.80E-04,  avg # of iterations =  1.5

     negative rho (up, down):  2.434E-04 2.431E-04

     total cpu time spent up to now is      337.2 secs

     total energy              =    -386.58157119 Ry
     estimated scf accuracy    <       0.69290797 Ry

     total magnetization       =     0.00 Bohr mag/cell
     absolute magnetization    =     0.00 Bohr mag/cell

     iteration # 21     ecut=    90.00 Ry     beta= 0.20
     Davidson diagonalization with overlap
     ethr =  1.80E-04,  avg # of iterations =  1.0

     negative rho (up, down):  2.600E-04 2.597E-04

     total cpu time spent up to now is      343.6 secs

     total energy              =    -386.58760704 Ry
     estimated scf accuracy    <       0.34943920 Ry

     total magnetization       =     0.00 Bohr mag/cell
     absolute magnetization    =     0.00 Bohr mag/cell

     iteration # 22     ecut=    90.00 Ry     beta= 0.20
     Davidson diagonalization with overlap
     ethr =  1.80E-04,  avg # of iterations =  1.0

     negative rho (up, down):  2.600E-04 2.597E-04

     total cpu time spent up to now is      350.0 secs

     total energy              =    -386.56958801 Ry
     estimated scf accuracy    <       0.57999161 Ry

     total magnetization       =     0.00 Bohr mag/cell
     absolute magnetization    =     0.00 Bohr mag/cell

     iteration # 23     ecut=    90.00 Ry     beta= 0.20
     Davidson diagonalization with overlap
     ethr =  1.80E-04,  avg # of iterations =  1.7

     negative rho (up, down):  3.060E-04 3.055E-04

     total cpu time spent up to now is      357.0 secs

     total energy              =    -386.55149307 Ry
     estimated scf accuracy    <       0.30370357 Ry

     total magnetization       =     0.00 Bohr mag/cell
     absolute magnetization    =     0.00 Bohr mag/cell

     iteration # 24     ecut=    90.00 Ry     beta= 0.20
     Davidson diagonalization with overlap
     ethr =  1.80E-04,  avg # of iterations =  2.1

     negative rho (up, down):  3.055E-04 3.050E-04

     total cpu time spent up to now is      364.6 secs

     total energy              =    -386.56378400 Ry
     estimated scf accuracy    <       0.00436725 Ry

     total magnetization       =     0.00 Bohr mag/cell
     absolute magnetization    =     0.00 Bohr mag/cell

     iteration # 25     ecut=    90.00 Ry     beta= 0.20
     Davidson diagonalization with overlap
     ethr =  1.51E-05,  avg # of iterations =  2.8

     negative rho (up, down):  2.765E-04 2.760E-04

     total cpu time spent up to now is      372.6 secs

     total energy              =    -386.56408970 Ry
     estimated scf accuracy    <       0.00031996 Ry

     total magnetization       =     0.00 Bohr mag/cell
     absolute magnetization    =     0.00 Bohr mag/cell

     iteration # 26     ecut=    90.00 Ry     beta= 0.20
     Davidson diagonalization with overlap
     ethr =  1.10E-06,  avg # of iterations =  3.7

     negative rho (up, down):  2.804E-04 2.798E-04

     total cpu time spent up to now is      382.7 secs

     total energy              =    -386.56380065 Ry
     estimated scf accuracy    <       0.00856371 Ry

     total magnetization       =     0.00 Bohr mag/cell
     absolute magnetization    =     0.00 Bohr mag/cell

     iteration # 27     ecut=    90.00 Ry     beta= 0.20
     Davidson diagonalization with overlap
     ethr =  1.10E-06,  avg # of iterations =  3.8

     negative rho (up, down):  2.624E-04 2.618E-04

     total cpu time spent up to now is      392.8 secs

     total energy              =    -386.56417037 Ry
     estimated scf accuracy    <       0.00024927 Ry

     total magnetization       =     0.00 Bohr mag/cell
     absolute magnetization    =     0.00 Bohr mag/cell

     iteration # 28     ecut=    90.00 Ry     beta= 0.20
     Davidson diagonalization with overlap
     ethr =  8.60E-07,  avg # of iterations =  2.0

     negative rho (up, down):  2.650E-04 2.642E-04

     total cpu time spent up to now is      400.3 secs

     total energy              =    -386.56418739 Ry
     estimated scf accuracy    <       0.00002305 Ry

     total magnetization       =     0.00 Bohr mag/cell
     absolute magnetization    =     0.00 Bohr mag/cell

     iteration # 29     ecut=    90.00 Ry     beta= 0.20
     Davidson diagonalization with overlap
     ethr =  7.95E-08,  avg # of iterations =  3.7

     negative rho (up, down):  2.693E-04 2.684E-04

     total cpu time spent up to now is      409.6 secs

     total energy              =    -386.56419245 Ry
     estimated scf accuracy    <       0.00002155 Ry

     total magnetization       =     0.00 Bohr mag/cell
     absolute magnetization    =     0.00 Bohr mag/cell

     iteration # 30     ecut=    90.00 Ry     beta= 0.20
     Davidson diagonalization with overlap
     ethr =  7.43E-08,  avg # of iterations =  1.1

     negative rho (up, down):  2.732E-04 2.721E-04

     total cpu time spent up to now is      416.1 secs

     total energy              =    -386.56419433 Ry
     estimated scf accuracy    <       0.00000520 Ry

     total magnetization       =     0.00 Bohr mag/cell
     absolute magnetization    =     0.00 Bohr mag/cell

     iteration # 31     ecut=    90.00 Ry     beta= 0.20
     Davidson diagonalization with overlap
     ethr =  1.79E-08,  avg # of iterations =  2.0

     negative rho (up, down):  2.726E-04 2.713E-04

     total cpu time spent up to now is      423.5 secs

     total energy              =    -386.56419445 Ry
     estimated scf accuracy    <       0.00000196 Ry

     total magnetization       =     0.00 Bohr mag/cell
     absolute magnetization    =     0.00 Bohr mag/cell

     iteration # 32     ecut=    90.00 Ry     beta= 0.20
     Davidson diagonalization with overlap
     ethr =  6.77E-09,  avg # of iterations =  1.9

     negative rho (up, down):  2.728E-04 2.713E-04

     total cpu time spent up to now is      430.6 secs

     total energy              =    -386.56419450 Ry
     estimated scf accuracy    <       0.00000031 Ry

     total magnetization       =     0.00 Bohr mag/cell
     absolute magnetization    =     0.00 Bohr mag/cell

     iteration # 33     ecut=    90.00 Ry     beta= 0.20
     Davidson diagonalization with overlap
     ethr =  1.07E-09,  avg # of iterations =  3.4

     negative rho (up, down):  2.735E-04 2.718E-04

     total cpu time spent up to now is      439.2 secs

     total energy              =    -386.56419461 Ry
     estimated scf accuracy    <       0.00000005 Ry

     total magnetization       =     0.00 Bohr mag/cell
     absolute magnetization    =     0.00 Bohr mag/cell

     iteration # 34     ecut=    90.00 Ry     beta= 0.20
     Davidson diagonalization with overlap
     ethr =  1.77E-10,  avg # of iterations =  3.7

     negative rho (up, down):  2.729E-04 2.719E-04

     total cpu time spent up to now is      448.6 secs

     total energy              =    -386.56419475 Ry
     estimated scf accuracy    <       0.00000007 Ry

     total magnetization       =     0.00 Bohr mag/cell
     absolute magnetization    =     0.00 Bohr mag/cell

     iteration # 35     ecut=    90.00 Ry     beta= 0.20
     Davidson diagonalization with overlap
     ethr =  1.77E-10,  avg # of iterations =  4.6

     negative rho (up, down):  2.740E-04 2.738E-04

     total cpu time spent up to now is      460.0 secs

     total energy              =    -386.56419462 Ry
     estimated scf accuracy    <       0.00000087 Ry

     total magnetization       =     0.00 Bohr mag/cell
     absolute magnetization    =     0.00 Bohr mag/cell

     iteration # 36     ecut=    90.00 Ry     beta= 0.20
     Davidson diagonalization with overlap
     ethr =  1.77E-10,  avg # of iterations =  3.7

     negative rho (up, down):  2.738E-04 2.736E-04

     total cpu time spent up to now is      469.3 secs

     total energy              =    -386.56419459 Ry
     estimated scf accuracy    <       0.00000024 Ry

     total magnetization       =     0.00 Bohr mag/cell
     absolute magnetization    =     0.00 Bohr mag/cell

     iteration # 37     ecut=    90.00 Ry     beta= 0.20
     Davidson diagonalization with overlap
     ethr =  1.77E-10,  avg # of iterations =  4.1

     negative rho (up, down):  2.739E-04 2.736E-04

     Magnetic moment per site:
     atom:    1    charge:   11.7038    magn:    0.0002    constr:    0.0000
     atom:    2    charge:   10.5341    magn:   -0.0001    constr:    0.0000

     total cpu time spent up to now is      480.1 secs

     End of self-consistent calculation

     Number of k-points >= 100: set verbosity='high' to print the bands.

     the Fermi energy is    17.0933 ev

!    total energy              =    -386.56419464 Ry
     estimated scf accuracy    <          5.5E-09 Ry
     smearing contrib. (-TS)   =      -0.00210446 Ry
     internal energy E=F+TS    =    -386.56209018 Ry

     The total energy is F=E-TS. E is the sum of the following terms:
     one-electron contribution =    -163.82323490 Ry
     hartree contribution      =      96.63910069 Ry
     xc contribution           =     -48.93419521 Ry
     ewald contribution        =    -270.44376076 Ry

     total magnetization       =     0.00 Bohr mag/cell
     absolute magnetization    =     0.00 Bohr mag/cell

     convergence has been achieved in  37 iterations

     negative rho (up, down):  2.739E-04 2.736E-04

     Forces acting on atoms (cartesian axes, Ry/au):

     atom    1 type  1   force =     0.00000000   -0.00000000    0.00000000
     atom    2 type  2   force =    -0.00000000    0.00000000   -0.00000000

     Total force =     0.000000     Total SCF correction =     0.000000
     SCF correction compared to forces is large: reduce conv_thr to get better values


     Computing stress (Cartesian axis) and pressure


     negative rho (up, down):  2.739E-04 2.736E-04
          total   stress  (Ry/bohr**3)                   (kbar)     P=      -67.64
  -0.00045960  -0.00000001  -0.00000000          -67.61       -0.00       -0.00
  -0.00000001  -0.00045994   0.00000000           -0.00      -67.66        0.00
  -0.00000000   0.00000000  -0.00045992           -0.00        0.00      -67.66

     Energy error            =      9.0E-01
     Gradient error          =      2.3E-09
     Cell gradient error     =      4.6E-04


     number of scf cycles    =   2
     number of bfgs steps    =   1

     enthalpy old            =    -385.6611041697 Ry
     enthalpy new            =    -386.5641946388 Ry

     CASE: enthalpy_new < enthalpy_old

     new trust radius        =       0.0104814077 bohr
     new conv_thr            =            1.0E-10 Ry

     new unit-cell volume =    170.04162 a.u.^3 (    25.19757 Ang^3 )
     density =      7.04704 g/cm^3

CELL_PARAMETERS (alat=  6.93031741)
  -0.634490300   0.000000154   0.634483883
  -0.000000153   0.634483459   0.634483884
  -0.634490432   0.634483590   0.000000022

ATOMIC_POSITIONS (alat)
Mn            0.6344901354        0.6344833260        0.6344838723
Cr            0.0000000013       -0.0000000101        0.0000000010



     Writing output data file ./pwscf.save/
     NEW-OLD atomic charge density approx. for the potential

     Check: negative core charge=   -0.000046

     negative rho (up, down):  2.829E-04 2.826E-04
     extrapolated charge   28.66809, renormalised to   29.00000
     Generating pointlists ...

     total cpu time spent up to now is      483.7 secs

     Self-consistent Calculation

     iteration #  1     ecut=    90.00 Ry     beta= 0.20
     Davidson diagonalization with overlap
     ethr =  1.00E-06,  avg # of iterations =  6.8

     negative rho (up, down):  3.091E-04 3.088E-04

     total cpu time spent up to now is      500.7 secs

     total energy              =    -386.39001260 Ry
     estimated scf accuracy    <       0.40396461 Ry

     total magnetization       =     0.00 Bohr mag/cell
     absolute magnetization    =     0.00 Bohr mag/cell

     iteration #  2     ecut=    90.00 Ry     beta= 0.20
     Davidson diagonalization with overlap
     ethr =  1.39E-03,  avg # of iterations =  3.3

     negative rho (up, down):  1.985E-04 1.981E-04

     total cpu time spent up to now is      509.8 secs

     total energy              =    -386.40807526 Ry
     estimated scf accuracy    <       6.47124545 Ry

     total magnetization       =     0.00 Bohr mag/cell
     absolute magnetization    =     0.00 Bohr mag/cell

     iteration #  3     ecut=    90.00 Ry     beta= 0.20
     Davidson diagonalization with overlap
     ethr =  1.39E-03,  avg # of iterations =  1.8

     negative rho (up, down):  2.339E-04 2.335E-04

     total cpu time spent up to now is      516.9 secs

     total energy              =    -386.56296439 Ry
     estimated scf accuracy    <       0.19625172 Ry

     total magnetization       =     0.00 Bohr mag/cell
     absolute magnetization    =     0.00 Bohr mag/cell

     iteration #  4     ecut=    90.00 Ry     beta= 0.20
     Davidson diagonalization with overlap
     ethr =  6.77E-04,  avg # of iterations =  1.3

     negative rho (up, down):  2.474E-04 2.471E-04

     total cpu time spent up to now is      523.6 secs

     total energy              =    -386.56598818 Ry
     estimated scf accuracy    <       0.04272230 Ry

     total magnetization       =     0.00 Bohr mag/cell
     absolute magnetization    =     0.00 Bohr mag/cell

     iteration #  5     ecut=    90.00 Ry     beta= 0.20
     Davidson diagonalization with overlap
     ethr =  1.47E-04,  avg # of iterations =  1.8

     negative rho (up, down):  2.546E-04 2.542E-04

     total cpu time spent up to now is      530.6 secs

     total energy              =    -386.56636484 Ry
     estimated scf accuracy    <       0.02388206 Ry

     total magnetization       =     0.00 Bohr mag/cell
     absolute magnetization    =     0.00 Bohr mag/cell

     iteration #  6     ecut=    90.00 Ry     beta= 0.20
     Davidson diagonalization with overlap
     ethr =  8.24E-05,  avg # of iterations =  1.1

     negative rho (up, down):  2.578E-04 2.575E-04

     total cpu time spent up to now is      537.1 secs

     total energy              =    -386.56625126 Ry
     estimated scf accuracy    <       0.01728357 Ry

     total magnetization       =     0.00 Bohr mag/cell
     absolute magnetization    =     0.00 Bohr mag/cell

     iteration #  7     ecut=    90.00 Ry     beta= 0.20
     Davidson diagonalization with overlap
     ethr =  5.96E-05,  avg # of iterations =  1.0

     negative rho (up, down):  2.805E-04 2.800E-04

     total cpu time spent up to now is      543.6 secs

     total energy              =    -386.56435249 Ry
     estimated scf accuracy    <       0.01398072 Ry

     total magnetization       =     0.00 Bohr mag/cell
     absolute magnetization    =     0.00 Bohr mag/cell

     iteration #  8     ecut=    90.00 Ry     beta= 0.20
     Davidson diagonalization with overlap
     ethr =  4.82E-05,  avg # of iterations =  1.2

     negative rho (up, down):  2.854E-04 2.849E-04

     total cpu time spent up to now is      550.2 secs

     total energy              =    -386.56483043 Ry
     estimated scf accuracy    <       0.00108350 Ry

     total magnetization       =     0.00 Bohr mag/cell
     absolute magnetization    =     0.00 Bohr mag/cell

     iteration #  9     ecut=    90.00 Ry     beta= 0.20
     Davidson diagonalization with overlap
     ethr =  3.74E-06,  avg # of iterations =  3.3

     negative rho (up, down):  2.916E-04 2.910E-04

     total cpu time spent up to now is      558.8 secs

     total energy              =    -386.56497489 Ry
     estimated scf accuracy    <       0.00013906 Ry

     total magnetization       =     0.00 Bohr mag/cell
     absolute magnetization    =     0.00 Bohr mag/cell

     iteration # 10     ecut=    90.00 Ry     beta= 0.20
     Davidson diagonalization with overlap
     ethr =  4.80E-07,  avg # of iterations =  3.4

     negative rho (up, down):  2.877E-04 2.872E-04

     total cpu time spent up to now is      567.6 secs

     total energy              =    -386.56498539 Ry
     estimated scf accuracy    <       0.00018301 Ry

     total magnetization       =     0.00 Bohr mag/cell
     absolute magnetization    =     0.00 Bohr mag/cell

     iteration # 11     ecut=    90.00 Ry     beta= 0.20
     Davidson diagonalization with overlap
     ethr =  4.80E-07,  avg # of iterations =  2.0

     negative rho (up, down):  2.886E-04 2.880E-04

     total cpu time spent up to now is      574.8 secs

     total energy              =    -386.56499830 Ry
     estimated scf accuracy    <       0.00002145 Ry

     total magnetization       =     0.00 Bohr mag/cell
     absolute magnetization    =     0.00 Bohr mag/cell

     iteration # 12     ecut=    90.00 Ry     beta= 0.20
     Davidson diagonalization with overlap
     ethr =  7.40E-08,  avg # of iterations =  2.1

     negative rho (up, down):  2.911E-04 2.900E-04

     total cpu time spent up to now is      582.0 secs

     total energy              =    -386.56499649 Ry
     estimated scf accuracy    <       0.00001970 Ry

     total magnetization       =     0.00 Bohr mag/cell
     absolute magnetization    =     0.00 Bohr mag/cell

     iteration # 13     ecut=    90.00 Ry     beta= 0.20
     Davidson diagonalization with overlap
     ethr =  6.79E-08,  avg # of iterations =  1.2

     negative rho (up, down):  2.905E-04 2.895E-04

     total cpu time spent up to now is      588.6 secs

     total energy              =    -386.56499906 Ry
     estimated scf accuracy    <       0.00006541 Ry

     total magnetization       =     0.00 Bohr mag/cell
     absolute magnetization    =     0.00 Bohr mag/cell

     iteration # 14     ecut=    90.00 Ry     beta= 0.20
     Davidson diagonalization with overlap
     ethr =  6.79E-08,  avg # of iterations =  1.0

     negative rho (up, down):  2.900E-04 2.890E-04

     total cpu time spent up to now is      595.1 secs

     total energy              =    -386.56499892 Ry
     estimated scf accuracy    <       0.00002111 Ry

     total magnetization       =     0.00 Bohr mag/cell
     absolute magnetization    =     0.00 Bohr mag/cell

     iteration # 15     ecut=    90.00 Ry     beta= 0.20
     Davidson diagonalization with overlap
     ethr =  6.79E-08,  avg # of iterations =  1.0

     negative rho (up, down):  2.899E-04 2.888E-04

     total cpu time spent up to now is      601.6 secs

     total energy              =    -386.56499929 Ry
     estimated scf accuracy    <       0.00000645 Ry

     total magnetization       =     0.00 Bohr mag/cell
     absolute magnetization    =     0.00 Bohr mag/cell

     iteration # 16     ecut=    90.00 Ry     beta= 0.20
     Davidson diagonalization with overlap
     ethr =  2.22E-08,  avg # of iterations =  1.0

     negative rho (up, down):  2.901E-04 2.893E-04

     total cpu time spent up to now is      608.1 secs

     total energy              =    -386.56499951 Ry
     estimated scf accuracy    <       0.00000667 Ry

     total magnetization       =     0.00 Bohr mag/cell
     absolute magnetization    =     0.00 Bohr mag/cell

     iteration # 17     ecut=    90.00 Ry     beta= 0.20
     Davidson diagonalization with overlap
     ethr =  2.22E-08,  avg # of iterations =  1.0

     negative rho (up, down):  2.898E-04 2.889E-04

     total cpu time spent up to now is      614.6 secs

     total energy              =    -386.56499888 Ry
     estimated scf accuracy    <       0.00000701 Ry

     total magnetization       =     0.00 Bohr mag/cell
     absolute magnetization    =     0.00 Bohr mag/cell

     iteration # 18     ecut=    90.00 Ry     beta= 0.20
     Davidson diagonalization with overlap
     ethr =  2.22E-08,  avg # of iterations =  1.0

     negative rho (up, down):  2.894E-04 2.889E-04

     total cpu time spent up to now is      621.0 secs

     total energy              =    -386.56499765 Ry
     estimated scf accuracy    <       0.00000499 Ry

     total magnetization       =     0.00 Bohr mag/cell
     absolute magnetization    =     0.00 Bohr mag/cell

     iteration # 19     ecut=    90.00 Ry     beta= 0.20
     Davidson diagonalization with overlap
     ethr =  1.72E-08,  avg # of iterations =  2.0

     negative rho (up, down):  2.894E-04 2.887E-04

     total cpu time spent up to now is      628.5 secs

     total energy              =    -386.56499789 Ry
     estimated scf accuracy    <       0.00000508 Ry

     total magnetization       =     0.00 Bohr mag/cell
     absolute magnetization    =     0.00 Bohr mag/cell

     iteration # 20     ecut=    90.00 Ry     beta= 0.20
     Davidson diagonalization with overlap
     ethr =  1.72E-08,  avg # of iterations =  1.0

     negative rho (up, down):  2.894E-04 2.887E-04

     total cpu time spent up to now is      635.0 secs

     total energy              =    -386.56499772 Ry
     estimated scf accuracy    <       0.00000224 Ry

     total magnetization       =     0.00 Bohr mag/cell
     absolute magnetization    =     0.00 Bohr mag/cell

     iteration # 21     ecut=    90.00 Ry     beta= 0.20
     Davidson diagonalization with overlap
     ethr =  7.72E-09,  avg # of iterations =  1.2

     negative rho (up, down):  2.893E-04 2.885E-04

     total cpu time spent up to now is      641.6 secs

     total energy              =    -386.56499771 Ry
     estimated scf accuracy    <       0.00000036 Ry

     total magnetization       =     0.00 Bohr mag/cell
     absolute magnetization    =     0.00 Bohr mag/cell

     iteration # 22     ecut=    90.00 Ry     beta= 0.20
     Davidson diagonalization with overlap
     ethr =  1.25E-09,  avg # of iterations =  2.9

     negative rho (up, down):  2.892E-04 2.885E-04

     total cpu time spent up to now is      649.9 secs

     total energy              =    -386.56499777 Ry
     estimated scf accuracy    <       0.00000007 Ry

     total magnetization       =     0.00 Bohr mag/cell
     absolute magnetization    =     0.00 Bohr mag/cell

     iteration # 23     ecut=    90.00 Ry     beta= 0.20
     Davidson diagonalization with overlap
     ethr =  2.40E-10,  avg # of iterations =  1.2

     negative rho (up, down):  2.886E-04 2.879E-04

     total cpu time spent up to now is      656.5 secs

     total energy              =    -386.56499778 Ry
     estimated scf accuracy    <       0.00000005 Ry

     total magnetization       =     0.00 Bohr mag/cell
     absolute magnetization    =     0.00 Bohr mag/cell

     iteration # 24     ecut=    90.00 Ry     beta= 0.20
     Davidson diagonalization with overlap
     ethr =  1.89E-10,  avg # of iterations =  2.0

     negative rho (up, down):  2.879E-04 2.875E-04

     total cpu time spent up to now is      664.3 secs

     total energy              =    -386.56499776 Ry
     estimated scf accuracy    <       0.00000012 Ry

     total magnetization       =     0.00 Bohr mag/cell
     absolute magnetization    =     0.00 Bohr mag/cell

     iteration # 25     ecut=    90.00 Ry     beta= 0.20
     Davidson diagonalization with overlap
     ethr =  1.89E-10,  avg # of iterations =  1.0

     negative rho (up, down):  2.879E-04 2.879E-04

     total cpu time spent up to now is      670.9 secs

     total energy              =    -386.56499776 Ry
     estimated scf accuracy    <       0.00000001 Ry

     total magnetization       =     0.00 Bohr mag/cell
     absolute magnetization    =     0.00 Bohr mag/cell

     iteration # 26     ecut=    90.00 Ry     beta= 0.20
     Davidson diagonalization with overlap
     ethr =  4.44E-11,  avg # of iterations =  3.0

     negative rho (up, down):  2.878E-04 2.878E-04

     total cpu time spent up to now is      679.4 secs

     total energy              =    -386.56499776 Ry
     estimated scf accuracy    <       0.00000002 Ry

     total magnetization       =     0.00 Bohr mag/cell
     absolute magnetization    =     0.00 Bohr mag/cell

     iteration # 27     ecut=    90.00 Ry     beta= 0.20
     Davidson diagonalization with overlap
     ethr =  4.44E-11,  avg # of iterations =  3.5

     negative rho (up, down):  2.879E-04 2.879E-04

     total cpu time spent up to now is      688.3 secs

     total energy              =    -386.56499776 Ry
     estimated scf accuracy    <          7.6E-10 Ry

     total magnetization       =     0.00 Bohr mag/cell
     absolute magnetization    =     0.00 Bohr mag/cell

     iteration # 28     ecut=    90.00 Ry     beta= 0.20
     Davidson diagonalization with overlap
     ethr =  2.64E-12,  avg # of iterations =  2.0

     negative rho (up, down):  2.881E-04 2.881E-04

     total cpu time spent up to now is      695.8 secs

     total energy              =    -386.56499776 Ry
     estimated scf accuracy    <          1.3E-10 Ry

     total magnetization       =     0.00 Bohr mag/cell
     absolute magnetization    =     0.00 Bohr mag/cell

     iteration # 29     ecut=    90.00 Ry     beta= 0.20
     Davidson diagonalization with overlap
     ethr =  4.39E-13,  avg # of iterations =  5.0

     negative rho (up, down):  2.881E-04 2.881E-04

     total cpu time spent up to now is      707.7 secs

     total energy              =    -386.56499776 Ry
     estimated scf accuracy    <          1.1E-09 Ry

     total magnetization       =     0.00 Bohr mag/cell
     absolute magnetization    =     0.00 Bohr mag/cell

     iteration # 30     ecut=    90.00 Ry     beta= 0.20
     Davidson diagonalization with overlap
     ethr =  4.39E-13,  avg # of iterations =  5.1

     negative rho (up, down):  2.881E-04 2.881E-04

     total cpu time spent up to now is      719.9 secs

     total energy              =    -386.56499776 Ry
     estimated scf accuracy    <          1.3E-10 Ry

     total magnetization       =     0.00 Bohr mag/cell
     absolute magnetization    =     0.00 Bohr mag/cell

     iteration # 31     ecut=    90.00 Ry     beta= 0.20
     Davidson diagonalization with overlap
     ethr =  4.35E-13,  avg # of iterations =  2.0

     negative rho (up, down):  2.881E-04 2.881E-04

     Magnetic moment per site:
     atom:    1    charge:   11.7083    magn:    0.0000    constr:    0.0000
     atom:    2    charge:   10.5382    magn:    0.0000    constr:    0.0000

     total cpu time spent up to now is      727.5 secs

     End of self-consistent calculation

     Number of k-points >= 100: set verbosity='high' to print the bands.

     the Fermi energy is    17.3435 ev

!    total energy              =    -386.56499776 Ry
     estimated scf accuracy    <          1.9E-11 Ry
     smearing contrib. (-TS)   =      -0.00206242 Ry
     internal energy E=F+TS    =    -386.56293534 Ry

     The total energy is F=E-TS. E is the sum of the following terms:
     one-electron contribution =    -162.14636074 Ry
     hartree contribution      =      96.06642418 Ry
     xc contribution           =     -48.95554893 Ry
     ewald contribution        =    -271.52744984 Ry

     total magnetization       =     0.00 Bohr mag/cell
     absolute magnetization    =     0.00 Bohr mag/cell

     convergence has been achieved in  31 iterations

     negative rho (up, down):  2.881E-04 2.881E-04

     Forces acting on atoms (cartesian axes, Ry/au):

     atom    1 type  1   force =     0.00000000   -0.00000000    0.00000000
     atom    2 type  2   force =    -0.00000000    0.00000000   -0.00000000

     Total force =     0.000000     Total SCF correction =     0.000000


     Computing stress (Cartesian axis) and pressure


     negative rho (up, down):  2.881E-04 2.881E-04
          total   stress  (Ry/bohr**3)                   (kbar)     P=      -46.83
  -0.00031838   0.00000000  -0.00000000          -46.84        0.00       -0.00
   0.00000000  -0.00031827  -0.00000000            0.00      -46.82       -0.00
  -0.00000000  -0.00000000  -0.00031828           -0.00       -0.00      -46.82

     Energy error            =      8.0E-04
     Gradient error          =      3.4E-09
     Cell gradient error     =      3.2E-04


     number of scf cycles    =   3
     number of bfgs steps    =   2

     enthalpy old            =    -386.5641946388 Ry
     enthalpy new            =    -386.5649977638 Ry

     CASE: enthalpy_new < enthalpy_old

     new trust radius        =       0.0156907662 bohr
     new conv_thr            =            1.0E-10 Ry

     new unit-cell volume =    166.99341 a.u.^3 (    24.74587 Ang^3 )
     density =      7.17567 g/cm^3

CELL_PARAMETERS (alat=  6.93031741)
  -0.630673003  -0.000000024   0.630671130
  -0.000000077   0.630670939   0.630671030
  -0.630672961   0.630670996   0.000000019

ATOMIC_POSITIONS (alat)
Mn            0.6306728659        0.6306709310        0.6306709695
Cr            0.0000000012       -0.0000000091        0.0000000009



     Writing output data file ./pwscf.save/
     NEW-OLD atomic charge density approx. for the potential

     Check: negative core charge=   -0.000045

     negative rho (up, down):  3.006E-04 3.006E-04
     extrapolated charge   28.49803, renormalised to   29.00000
     Generating pointlists ...

     total cpu time spent up to now is      731.4 secs

     Self-consistent Calculation

     iteration #  1     ecut=    90.00 Ry     beta= 0.20
     Davidson diagonalization with overlap
     ethr =  1.00E-06,  avg # of iterations =  7.1

     negative rho (up, down):  3.356E-04 3.357E-04

     total cpu time spent up to now is      749.8 secs

     total energy              =    -386.18102596 Ry
     estimated scf accuracy    <       0.88199097 Ry

     total magnetization       =     0.00 Bohr mag/cell
     absolute magnetization    =     0.00 Bohr mag/cell

     iteration #  2     ecut=    90.00 Ry     beta= 0.20
     Davidson diagonalization with overlap
     ethr =  3.04E-03,  avg # of iterations =  3.6

     negative rho (up, down):  1.790E-04 1.790E-04

     total cpu time spent up to now is      758.8 secs

     total energy              =    -386.32999546 Ry
     estimated scf accuracy    <       9.87700845 Ry

     total magnetization       =     0.00 Bohr mag/cell
     absolute magnetization    =     0.00 Bohr mag/cell

     iteration #  3     ecut=    90.00 Ry     beta= 0.20
     Davidson diagonalization with overlap
     ethr =  3.04E-03,  avg # of iterations =  1.7

     negative rho (up, down):  2.297E-04 2.297E-04

     total cpu time spent up to now is      765.8 secs

     total energy              =    -386.55876318 Ry
     estimated scf accuracy    <       0.49030330 Ry

     total magnetization       =     0.00 Bohr mag/cell
     absolute magnetization    =     0.00 Bohr mag/cell

     iteration #  4     ecut=    90.00 Ry     beta= 0.20
     Davidson diagonalization with overlap
     ethr =  1.69E-03,  avg # of iterations =  1.2

     negative rho (up, down):  2.489E-04 2.489E-04

     total cpu time spent up to now is      772.5 secs

     total energy              =    -386.56774894 Ry
     estimated scf accuracy    <       0.08524431 Ry

     total magnetization       =     0.00 Bohr mag/cell
     absolute magnetization    =     0.00 Bohr mag/cell

     iteration #  5     ecut=    90.00 Ry     beta= 0.20
     Davidson diagonalization with overlap
     ethr =  2.94E-04,  avg # of iterations =  2.0

     negative rho (up, down):  2.603E-04 2.603E-04

     total cpu time spent up to now is      779.6 secs

     total energy              =    -386.56859492 Ry
     estimated scf accuracy    <       0.05273413 Ry

     total magnetization       =     0.00 Bohr mag/cell
     absolute magnetization    =     0.00 Bohr mag/cell

     iteration #  6     ecut=    90.00 Ry     beta= 0.20
     Davidson diagonalization with overlap
     ethr =  1.82E-04,  avg # of iterations =  1.1

     negative rho (up, down):  2.592E-04 2.592E-04

     total cpu time spent up to now is      786.1 secs

     total energy              =    -386.56925195 Ry
     estimated scf accuracy    <       0.03732604 Ry

     total magnetization       =     0.00 Bohr mag/cell
     absolute magnetization    =     0.00 Bohr mag/cell

     iteration #  7     ecut=    90.00 Ry     beta= 0.20
     Davidson diagonalization with overlap
     ethr =  1.29E-04,  avg # of iterations =  1.0

     negative rho (up, down):  2.826E-04 2.826E-04

     total cpu time spent up to now is      792.5 secs

     total energy              =    -386.56567823 Ry
     estimated scf accuracy    <       0.03831110 Ry

     total magnetization       =     0.00 Bohr mag/cell
     absolute magnetization    =     0.00 Bohr mag/cell

     iteration #  8     ecut=    90.00 Ry     beta= 0.20
     Davidson diagonalization with overlap
     ethr =  1.29E-04,  avg # of iterations =  1.0

     negative rho (up, down):  3.074E-04 3.074E-04

     total cpu time spent up to now is      799.0 secs

     total energy              =    -386.56456655 Ry
     estimated scf accuracy    <       0.01108449 Ry

     total magnetization       =     0.00 Bohr mag/cell
     absolute magnetization    =     0.00 Bohr mag/cell

     iteration #  9     ecut=    90.00 Ry     beta= 0.20
[...]

     negative rho (up, down):  4.431E-04 4.432E-04

     total cpu time spent up to now is     2156.8 secs

     total energy              =    -386.56694947 Ry
     estimated scf accuracy    <       0.00809268 Ry

     total magnetization       =    -0.00 Bohr mag/cell
     absolute magnetization    =     0.00 Bohr mag/cell

     iteration # 13     ecut=    90.00 Ry     beta= 0.20
     Davidson diagonalization with overlap
     ethr =  2.79E-05,  avg # of iterations =  1.8

     negative rho (up, down):  4.396E-04 4.396E-04

     total cpu time spent up to now is     2168.9 secs

     total energy              =    -386.56681003 Ry
     estimated scf accuracy    <       0.02468182 Ry

     total magnetization       =    -0.00 Bohr mag/cell
     absolute magnetization    =     0.00 Bohr mag/cell

     iteration # 14     ecut=    90.00 Ry     beta= 0.20
     Davidson diagonalization with overlap
     ethr =  2.79E-05,  avg # of iterations =  1.0

     negative rho (up, down):  4.437E-04 4.437E-04

     total cpu time spent up to now is     2180.0 secs

     total energy              =    -386.56754112 Ry
     estimated scf accuracy    <       0.00716261 Ry

     total magnetization       =    -0.00 Bohr mag/cell
     absolute magnetization    =     0.00 Bohr mag/cell

     iteration # 15     ecut=    90.00 Ry     beta= 0.20
     Davidson diagonalization with overlap
     ethr =  2.47E-05,  avg # of iterations =  1.0

     negative rho (up, down):  4.814E-04 4.816E-04

     total cpu time spent up to now is     2191.1 secs

     total energy              =    -386.56506751 Ry
     estimated scf accuracy    <       0.02035524 Ry

     total magnetization       =    -0.00 Bohr mag/cell
     absolute magnetization    =     0.00 Bohr mag/cell

     iteration # 16     ecut=    90.00 Ry     beta= 0.20
     Davidson diagonalization with overlap
     ethr =  2.47E-05,  avg # of iterations =  2.0

     negative rho (up, down):  4.470E-04 4.471E-04

     total cpu time spent up to now is     2204.6 secs

     total energy              =    -386.56696482 Ry
     estimated scf accuracy    <       0.00115062 Ry

     total magnetization       =    -0.00 Bohr mag/cell
     absolute magnetization    =     0.00 Bohr mag/cell

     iteration # 17     ecut=    90.00 Ry     beta= 0.20
     Davidson diagonalization with overlap
     ethr =  3.97E-06,  avg # of iterations =  5.2

     negative rho (up, down):  4.621E-04 4.622E-04

     total cpu time spent up to now is     2226.2 secs

     total energy              =    -386.56049840 Ry
     estimated scf accuracy    <       0.07046898 Ry

     total magnetization       =    -0.00 Bohr mag/cell
     absolute magnetization    =     0.00 Bohr mag/cell

     iteration # 18     ecut=    90.00 Ry     beta= 0.20
     Davidson diagonalization with overlap
     ethr =  3.97E-06,  avg # of iterations =  5.1

     negative rho (up, down):  4.599E-04 4.599E-04

     total cpu time spent up to now is     2248.4 secs

     total energy              =    -386.56638205 Ry
     estimated scf accuracy    <       0.00521415 Ry

     total magnetization       =    -0.00 Bohr mag/cell
     absolute magnetization    =     0.00 Bohr mag/cell

     iteration # 19     ecut=    90.00 Ry     beta= 0.20
     Davidson diagonalization with overlap
     ethr =  3.97E-06,  avg # of iterations =  2.0

     negative rho (up, down):  4.581E-04 4.582E-04

     total cpu time spent up to now is     2260.7 secs

     total energy              =    -386.56646184 Ry
     estimated scf accuracy    <       0.00226914 Ry

     total magnetization       =    -0.00 Bohr mag/cell
     absolute magnetization    =     0.00 Bohr mag/cell

     iteration # 20     ecut=    90.00 Ry     beta= 0.20
     Davidson diagonalization with overlap
     ethr =  3.97E-06,  avg # of iterations =  1.0

     negative rho (up, down):  4.788E-04 4.788E-04

     total cpu time spent up to now is     2271.8 secs

     total energy              =    -386.56636245 Ry
     estimated scf accuracy    <       0.00267319 Ry

     total magnetization       =    -0.00 Bohr mag/cell
     absolute magnetization    =     0.00 Bohr mag/cell

     iteration # 21     ecut=    90.00 Ry     beta= 0.20
     Davidson diagonalization with overlap
     ethr =  3.97E-06,  avg # of iterations =  1.0

     negative rho (up, down):  4.859E-04 4.859E-04

     total cpu time spent up to now is     2282.8 secs

     total energy              =    -386.56640049 Ry
     estimated scf accuracy    <       0.00073807 Ry

     total magnetization       =    -0.00 Bohr mag/cell
     absolute magnetization    =     0.00 Bohr mag/cell

     iteration # 22     ecut=    90.00 Ry     beta= 0.20
     Davidson diagonalization with overlap
     ethr =  2.55E-06,  avg # of iterations =  1.0

     negative rho (up, down):  4.768E-04 4.769E-04

     total cpu time spent up to now is     2293.9 secs

     total energy              =    -386.56636555 Ry
     estimated scf accuracy    <       0.00029378 Ry

     total magnetization       =    -0.00 Bohr mag/cell
     absolute magnetization    =     0.00 Bohr mag/cell

     iteration # 23     ecut=    90.00 Ry     beta= 0.20
     Davidson diagonalization with overlap
     ethr =  1.01E-06,  avg # of iterations =  1.0

     negative rho (up, down):  4.742E-04 4.744E-04

     total cpu time spent up to now is     2305.0 secs

     total energy              =    -386.56633401 Ry
     estimated scf accuracy    <       0.00008461 Ry

     total magnetization       =    -0.00 Bohr mag/cell
     absolute magnetization    =     0.00 Bohr mag/cell

     iteration # 24     ecut=    90.00 Ry     beta= 0.20
     Davidson diagonalization with overlap
     ethr =  2.92E-07,  avg # of iterations =  3.1

     negative rho (up, down):  4.748E-04 4.749E-04

     total cpu time spent up to now is     2319.0 secs

     total energy              =    -386.56635380 Ry
     estimated scf accuracy    <       0.00003697 Ry

     total magnetization       =    -0.00 Bohr mag/cell
     absolute magnetization    =     0.00 Bohr mag/cell

     iteration # 25     ecut=    90.00 Ry     beta= 0.20
     Davidson diagonalization with overlap
     ethr =  1.27E-07,  avg # of iterations =  1.0

     negative rho (up, down):  4.738E-04 4.740E-04

     total cpu time spent up to now is     2330.1 secs

     total energy              =    -386.56635544 Ry
     estimated scf accuracy    <       0.00000069 Ry

     total magnetization       =    -0.00 Bohr mag/cell
     absolute magnetization    =     0.00 Bohr mag/cell

     iteration # 26     ecut=    90.00 Ry     beta= 0.20
     Davidson diagonalization with overlap
     ethr =  2.38E-09,  avg # of iterations =  2.8

     negative rho (up, down):  4.742E-04 4.744E-04

     total cpu time spent up to now is     2343.5 secs

     total energy              =    -386.56635549 Ry
     estimated scf accuracy    <       0.00000014 Ry

     total magnetization       =    -0.00 Bohr mag/cell
     absolute magnetization    =     0.00 Bohr mag/cell

     iteration # 27     ecut=    90.00 Ry     beta= 0.20
     Davidson diagonalization with overlap
     ethr =  4.73E-10,  avg # of iterations =  3.6

     negative rho (up, down):  4.743E-04 4.745E-04

     total cpu time spent up to now is     2359.4 secs

     total energy              =    -386.56635551 Ry
     estimated scf accuracy    <       0.00000018 Ry

     total magnetization       =    -0.00 Bohr mag/cell
     absolute magnetization    =     0.00 Bohr mag/cell

     iteration # 28     ecut=    90.00 Ry     beta= 0.20
     Davidson diagonalization with overlap
     ethr =  4.73E-10,  avg # of iterations =  2.2

     negative rho (up, down):  4.743E-04 4.745E-04

     total cpu time spent up to now is     2372.3 secs

     total energy              =    -386.56635552 Ry
     estimated scf accuracy    <       0.00000002 Ry

     total magnetization       =    -0.00 Bohr mag/cell
     absolute magnetization    =     0.00 Bohr mag/cell

     iteration # 29     ecut=    90.00 Ry     beta= 0.20
     Davidson diagonalization with overlap
     ethr =  6.51E-11,  avg # of iterations =  3.0

     negative rho (up, down):  4.743E-04 4.745E-04

     total cpu time spent up to now is     2386.1 secs

     total energy              =    -386.56635553 Ry
     estimated scf accuracy    <          2.9E-09 Ry

     total magnetization       =    -0.00 Bohr mag/cell
     absolute magnetization    =     0.00 Bohr mag/cell

     iteration # 30     ecut=    90.00 Ry     beta= 0.20
     Davidson diagonalization with overlap
     ethr =  9.96E-12,  avg # of iterations =  1.6

     negative rho (up, down):  4.743E-04 4.745E-04

     total cpu time spent up to now is     2397.9 secs

     total energy              =    -386.56635553 Ry
     estimated scf accuracy    <          4.0E-09 Ry

     total magnetization       =    -0.00 Bohr mag/cell
     absolute magnetization    =     0.00 Bohr mag/cell

     iteration # 31     ecut=    90.00 Ry     beta= 0.20
     Davidson diagonalization with overlap
     ethr =  9.96E-12,  avg # of iterations =  1.3

     negative rho (up, down):  4.743E-04 4.745E-04

     total cpu time spent up to now is     2409.3 secs

     total energy              =    -386.56635553 Ry
     estimated scf accuracy    <       0.00000001 Ry

     total magnetization       =    -0.00 Bohr mag/cell
     absolute magnetization    =     0.00 Bohr mag/cell

     iteration # 32     ecut=    90.00 Ry     beta= 0.20
     Davidson diagonalization with overlap
     ethr =  9.96E-12,  avg # of iterations =  1.0

     negative rho (up, down):  4.743E-04 4.746E-04

     total cpu time spent up to now is     2420.3 secs

     total energy              =    -386.56635553 Ry
     estimated scf accuracy    <          2.3E-09 Ry

     total magnetization       =    -0.00 Bohr mag/cell
     absolute magnetization    =     0.00 Bohr mag/cell

     iteration # 33     ecut=    90.00 Ry     beta= 0.20
     Davidson diagonalization with overlap
     ethr =  7.92E-12,  avg # of iterations =  1.0

     negative rho (up, down):  4.744E-04 4.746E-04

     total cpu time spent up to now is     2431.4 secs

     total energy              =    -386.56635553 Ry
     estimated scf accuracy    <          2.2E-09 Ry

     total magnetization       =    -0.00 Bohr mag/cell
     absolute magnetization    =     0.00 Bohr mag/cell

     iteration # 34     ecut=    90.00 Ry     beta= 0.20
     Davidson diagonalization with overlap
     ethr =  7.75E-12,  avg # of iterations =  1.0

     negative rho (up, down):  4.744E-04 4.746E-04

     total cpu time spent up to now is     2442.5 secs

     total energy              =    -386.56635553 Ry
     estimated scf accuracy    <          2.2E-09 Ry

     total magnetization       =    -0.00 Bohr mag/cell
     absolute magnetization    =     0.00 Bohr mag/cell

     iteration # 35     ecut=    90.00 Ry     beta= 0.20
     Davidson diagonalization with overlap
     ethr =  7.72E-12,  avg # of iterations =  1.0

     negative rho (up, down):  4.744E-04 4.746E-04

     total cpu time spent up to now is     2453.6 secs

     total energy              =    -386.56635552 Ry
     estimated scf accuracy    <          2.4E-09 Ry

     total magnetization       =    -0.00 Bohr mag/cell
     absolute magnetization    =     0.00 Bohr mag/cell

     iteration # 36     ecut=    90.00 Ry     beta= 0.20
     Davidson diagonalization with overlap
     ethr =  7.72E-12,  avg # of iterations =  1.0

     negative rho (up, down):  4.745E-04 4.746E-04

     total cpu time spent up to now is     2464.6 secs

     total energy              =    -386.56635552 Ry
     estimated scf accuracy    <          1.9E-09 Ry

     total magnetization       =    -0.00 Bohr mag/cell
     absolute magnetization    =     0.00 Bohr mag/cell

     iteration # 37     ecut=    90.00 Ry     beta= 0.20
     Davidson diagonalization with overlap
     ethr =  6.68E-12,  avg # of iterations =  1.9

     negative rho (up, down):  4.745E-04 4.746E-04

     total cpu time spent up to now is     2477.1 secs

     total energy              =    -386.56635552 Ry
     estimated scf accuracy    <          1.5E-09 Ry

     total magnetization       =    -0.00 Bohr mag/cell
     absolute magnetization    =     0.00 Bohr mag/cell

     iteration # 38     ecut=    90.00 Ry     beta= 0.20
     Davidson diagonalization with overlap
     ethr =  5.30E-12,  avg # of iterations =  3.9

     negative rho (up, down):  4.746E-04 4.746E-04

     total cpu time spent up to now is     2494.3 secs

     total energy              =    -386.56635552 Ry
     estimated scf accuracy    <          6.1E-09 Ry

     total magnetization       =    -0.00 Bohr mag/cell
     absolute magnetization    =     0.00 Bohr mag/cell

     iteration # 39     ecut=    90.00 Ry     beta= 0.20
     Davidson diagonalization with overlap
     ethr =  5.30E-12,  avg # of iterations =  3.4

     negative rho (up, down):  4.746E-04 4.746E-04

     total cpu time spent up to now is     2509.9 secs

     total energy              =    -386.56635552 Ry
     estimated scf accuracy    <          4.5E-10 Ry

     total magnetization       =    -0.00 Bohr mag/cell
     absolute magnetization    =     0.00 Bohr mag/cell

     iteration # 40     ecut=    90.00 Ry     beta= 0.20
     Davidson diagonalization with overlap
     ethr =  1.54E-12,  avg # of iterations =  1.7

     negative rho (up, down):  4.746E-04 4.746E-04

     total cpu time spent up to now is     2521.8 secs

     total energy              =    -386.56635552 Ry
     estimated scf accuracy    <          2.3E-10 Ry

     total magnetization       =    -0.00 Bohr mag/cell
     absolute magnetization    =     0.00 Bohr mag/cell

     iteration # 41     ecut=    90.00 Ry     beta= 0.20
     Davidson diagonalization with overlap
     ethr =  8.07E-13,  avg # of iterations =  1.6

     negative rho (up, down):  4.745E-04 4.746E-04

     total cpu time spent up to now is     2533.6 secs

     total energy              =    -386.56635552 Ry
     estimated scf accuracy    <          1.1E-10 Ry

     total magnetization       =    -0.00 Bohr mag/cell
     absolute magnetization    =     0.00 Bohr mag/cell

     iteration # 42     ecut=    90.00 Ry     beta= 0.20
     Davidson diagonalization with overlap
     ethr =  3.89E-13,  avg # of iterations =  2.5

     negative rho (up, down):  4.745E-04 4.746E-04

     Magnetic moment per site:
     atom:    1    charge:   11.7180    magn:   -0.0000    constr:    0.0000
     atom:    2    charge:   10.5475    magn:    0.0000    constr:    0.0000

     total cpu time spent up to now is     2546.7 secs

     End of self-consistent calculation

     Number of k-points >= 100: set verbosity='high' to print the bands.

     the Fermi energy is    17.8589 ev

!    total energy              =    -386.56635552 Ry
     estimated scf accuracy    <          6.8E-11 Ry
     smearing contrib. (-TS)   =      -0.00197865 Ry
     internal energy E=F+TS    =    -386.56437687 Ry

     The total energy is F=E-TS. E is the sum of the following terms:
     one-electron contribution =    -158.73239566 Ry
     hartree contribution      =      94.90683048 Ry
     xc contribution           =     -48.99956617 Ry
     ewald contribution        =    -273.73924552 Ry

     total magnetization       =    -0.00 Bohr mag/cell
     absolute magnetization    =     0.00 Bohr mag/cell

     convergence has been achieved in  42 iterations

     negative rho (up, down):  4.745E-04 4.746E-04

     Forces acting on atoms (cartesian axes, Ry/au):

     atom    1 type  1   force =     0.00000000   -0.00000000    0.00000000
     atom    2 type  2   force =    -0.00000000    0.00000000   -0.00000000

     Total force =     0.000000     Total SCF correction =     0.000000
     SCF correction compared to forces is large: reduce conv_thr to get better values


     Computing stress (Cartesian axis) and pressure


     negative rho (up, down):  4.745E-04 4.746E-04
          total   stress  (Ry/bohr**3)                   (kbar)     P=       -1.35
  -0.00000919  -0.00000000   0.00000000           -1.35       -0.00        0.00
  -0.00000000  -0.00000919   0.00000000           -0.00       -1.35        0.00
   0.00000000   0.00000000  -0.00000921            0.00        0.00       -1.35


     init_run     :      9.20s CPU      9.59s WALL (       2 calls)
     electrons    :   2411.11s CPU   2503.56s WALL (      10 calls)
     update_pot   :      2.78s CPU      2.84s WALL (       7 calls)
     forces       :     10.15s CPU     10.38s WALL (      10 calls)
     stress       :     22.54s CPU     22.68s WALL (      10 calls)

     Called by init_run:
     wfcinit      :      7.74s CPU      8.02s WALL (       2 calls)
     potinit      :      0.50s CPU      0.52s WALL (       3 calls)
     hinit0       :      0.89s CPU      0.95s WALL (       2 calls)

     Called by electrons:
     c_bands      :   2060.33s CPU   2138.13s WALL (     270 calls)
     sum_band     :    324.02s CPU    337.74s WALL (     270 calls)
     v_of_rho     :      9.44s CPU     10.01s WALL (     278 calls)
     newd         :     16.79s CPU     16.99s WALL (     278 calls)
     mix_rho      :      0.66s CPU      0.77s WALL (     270 calls)

     Called by c_bands:
     init_us_2    :     27.71s CPU     28.98s WALL (  566496 calls)
     cegterg      :   1986.78s CPU   2062.53s WALL (  272160 calls)

     Called by *egterg:
     cdiaghg      :    316.81s CPU    326.19s WALL (  942838 calls)
     h_psi        :   1285.66s CPU   1339.83s WALL (  954934 calls)
     s_psi        :     68.14s CPU     71.23s WALL (  954934 calls)
     g_psi        :      4.79s CPU      4.92s WALL (  680758 calls)

     Called by h_psi:
     h_psi:calbec :     90.87s CPU     95.42s WALL (  954934 calls)
     vloc_psi     :   1121.30s CPU   1167.55s WALL (  954934 calls)
     add_vuspsi   :     68.79s CPU     72.19s WALL (  954934 calls)

     General routines
     calbec       :    129.30s CPU    135.71s WALL ( 1277494 calls)
     fft          :      3.46s CPU      4.06s WALL (    7339 calls)
     ffts         :      0.07s CPU      0.08s WALL (    1096 calls)
     fftw         :   1245.29s CPU   1298.14s WALL (31018796 calls)
     interpolate  :      0.31s CPU      0.36s WALL (     556 calls)

     Parallel routines
     fft_scatt_xy :    151.84s CPU    157.53s WALL (31027231 calls)
     fft_scatt_yz :    442.62s CPU    462.70s WALL (31027231 calls)

     PWSCF        :  40m57.71s CPU  42m32.48s WALL


   This run was terminated on:  20: 0:18   8Dec2021            

=------------------------------------------------------------------------------=
   JOB DONE.
=------------------------------------------------------------------------------=
Note: The following floating-point exceptions are signalling: IEEE_UNDERFLOW_FLAG IEEE_DENORMAL
Note: The following floating-point exceptions are signalling: IEEE_UNDERFLOW_FLAG IEEE_DENORMAL
Note: The following floating-point exceptions are signalling: IEEE_UNDERFLOW_FLAG IEEE_DENORMAL
Note: The following floating-point exceptions are signalling: IEEE_UNDERFLOW_FLAG IEEE_DENORMAL
Note: The following floating-point exceptions are signalling: IEEE_UNDERFLOW_FLAG IEEE_DENORMAL
Note: The following floating-point exceptions are signalling: IEEE_UNDERFLOW_FLAG IEEE_DENORMAL
Note: The following floating-point exceptions are signalling: IEEE_UNDERFLOW_FLAG IEEE_DENORMAL
Note: The following floating-point exceptions are signalling: IEEE_UNDERFLOW_FLAG IEEE_DENORMAL
Note: The following floating-point exceptions are signalling: IEEE_UNDERFLOW_FLAG IEEE_DENORMAL
Note: The following floating-point exceptions are signalling: IEEE_UNDERFLOW_FLAG IEEE_DENORMAL
Note: The following floating-point exceptions are signalling: IEEE_UNDERFLOW_FLAG IEEE_DENORMAL
Note: The following floating-point exceptions are signalling: IEEE_UNDERFLOW_FLAG IEEE_DENORMAL
