 # File generated with Atomsk by kevin on 2022-03-22 10:56:09
 
           8  atoms
 5 atom types
 
      0.000000000000       4.635800000000  xlo xhi
      0.000000000000       4.635800000000  ylo yhi
      0.000000000000       4.635800000000  zlo zhi
0 0 0 xy xz yz
 
Masses

1 58.933
2 51.9961
3 55.845
4 54.938
5 58.693
Atoms # atomic

1 4 0.000000000000 0.000000000000 0.000000000000
2 5 2.317900000000 2.317900000000 2.317900000000
3 4 0.000000000000 2.317900000000 2.317900000000
4 5 2.317900000000 0.000000000000 0.000000000000
5 4 2.317900000000 2.317900000000 0.000000000000
6 5 0.000000000000 0.000000000000 2.317900000000
7 4 2.317900000000 0.000000000000 2.317900000000
8 5 0.000000000000 2.317900000000 0.000000000000

