
     Program PWSCF v.6.7MaX starts on  8Dec2021 at 19:25:37 

     This program is part of the open-source Quantum ESPRESSO suite
     for quantum simulation of materials; please cite
         "P. Giannozzi et al., J. Phys.:Condens. Matter 21 395502 (2009);
         "P. Giannozzi et al., J. Phys.:Condens. Matter 29 465901 (2017);
          URL http://www.quantum-espresso.org", 
     in publications or presentations arising from this work. More details at
     http://www.quantum-espresso.org/quote

     Parallel version (MPI), running on    12 processors

     MPI processes distributed on     1 nodes
     R & G space division:  proc/nbgrp/npool/nimage =      12
     Reading input from Opt-B1-MnNi.in

     Current dimensions of program PWSCF are:
     Max number of different atomic species (ntypx) = 10
     Max number of k-points (npk) =  40000
     Max angular momentum in pseudopotentials (lmaxx) =  3

     Subspace diagonalization in iterative solution of the eigenvalue problem:
     a serial algorithm will be used


     Parallelization info
     --------------------
     sticks:   dense  smooth     PW     G-vecs:    dense   smooth      PW
     Min         144      48     16                 3953      764     146
     Max         145      49     17                 3955      766     147
     Sum        1735     583    199                47447     9185    1759



     bravais-lattice index     =            2
     lattice parameter (alat)  =       6.8113  a.u.
     unit-cell volume          =      79.0008 (a.u.)^3
     number of atoms/cell      =            2
     number of atomic types    =            2
     number of electrons       =        33.00
     number of Kohn-Sham states=           21
     kinetic-energy cutoff     =      90.0000  Ry
     charge density cutoff     =    1080.0000  Ry
     scf convergence threshold =      1.0E-08
     mixing beta               =       0.2000
     number of iterations used =            8  plain     mixing
     energy convergence thresh.=      1.0E-05
     force convergence thresh. =      1.0E-04
     press convergence thresh. =      1.0E-01
     Exchange-correlation=  SLA  PW   PBX  PBC
                           (   1   4   3   4   0   0   0)
     nstep                     =          100


     celldm(1)=   6.811307  celldm(2)=   0.000000  celldm(3)=   0.000000
     celldm(4)=   0.000000  celldm(5)=   0.000000  celldm(6)=   0.000000

     crystal axes: (cart. coord. in units of alat)
               a(1) = (  -0.500000   0.000000   0.500000 )  
               a(2) = (   0.000000   0.500000   0.500000 )  
               a(3) = (  -0.500000   0.500000   0.000000 )  

     reciprocal axes: (cart. coord. in units 2 pi/alat)
               b(1) = ( -1.000000 -1.000000  1.000000 )  
               b(2) = (  1.000000  1.000000  1.000000 )  
               b(3) = ( -1.000000  1.000000 -1.000000 )  


     PseudoPot. # 1 for Ni read from file:
     /opt/QEpot/SSSP_efficiency_pseudos/ni_pbe_v1.4.uspp.F.UPF
     MD5 check sum: 1ee80287db30b12d2bc1f57a5b5d6409
     Pseudo is Ultrasoft + core correction, Zval = 18.0
     Generated by new atomic code, or converted to UPF format
     Using radial grid of  865 points,  6 beta functions with: 
                l(1) =   0
                l(2) =   0
                l(3) =   1
                l(4) =   1
                l(5) =   2
                l(6) =   2
     Q(r) pseudized with 10 coefficients,  rinner =    0.980   0.980   0.980
                                                       0.980   0.980

     PseudoPot. # 2 for Mn read from file:
     /opt/QEpot/SSSP_efficiency_pseudos/mn_pbe_v1.5.uspp.F.UPF
     MD5 check sum: 82ef2b46521d7a7d9e736dc3972e4928
     Pseudo is Ultrasoft + core correction, Zval = 15.0
     Generated by new atomic code, or converted to UPF format
     Using radial grid of  859 points,  6 beta functions with: 
                l(1) =   0
                l(2) =   0
                l(3) =   1
                l(4) =   1
                l(5) =   2
                l(6) =   2
     Q(r) pseudized with  8 coefficients,  rinner =    0.950   0.950   0.950
                                                       0.950   0.950

     atomic species   valence    mass     pseudopotential
        Ni            18.00    58.69300     Ni( 1.00)
        Mn            15.00    54.93800     Mn( 1.00)

     Starting magnetic structure 
     atomic species   magnetization
        Ni           0.200
        Mn           0.200

     No symmetry found



   Cartesian axes

     site n.     atom                  positions (alat units)
         1           Ni  tau(   1) = (   0.5000000   0.5000000   0.5000000  )
         2           Mn  tau(   2) = (   0.0000000   0.0000000   0.0000000  )

     number of k points=   504  Gaussian smearing, width (Ry)=  0.0100

     Number of k-points >= 100: set verbosity='high' to print them.

     Dense  grid:    47447 G-vectors     FFT dimensions: (  54,  54,  54)

     Smooth grid:     9185 G-vectors     FFT dimensions: (  30,  30,  30)

     Estimated max dynamical RAM per process >      57.71 MB

     Estimated total dynamical RAM >     692.49 MB

     Check: negative core charge=   -0.000021
     Generating pointlists ...
     new r_m :   0.2063 (alat units)  1.4048 (a.u.) for type    1
     new r_m :   0.2063 (alat units)  1.4048 (a.u.) for type    2

     Initial potential from superposition of free atoms

     starting charge   30.49991, renormalised to   33.00000
     Starting wfcs are   26 randomized atomic wfcs

     total cpu time spent up to now is        4.3 secs

     Self-consistent Calculation

     iteration #  1     ecut=    90.00 Ry     beta= 0.20
     Davidson diagonalization with overlap
     ethr =  1.00E-02,  avg # of iterations =  3.0

     total cpu time spent up to now is       15.2 secs

     total energy              =    -551.03865076 Ry
     estimated scf accuracy    <      17.14743219 Ry

     total magnetization       =     2.26 Bohr mag/cell
     absolute magnetization    =     2.26 Bohr mag/cell

     iteration #  2     ecut=    90.00 Ry     beta= 0.20
     Davidson diagonalization with overlap
     ethr =  1.00E-02,  avg # of iterations =  2.6

     total cpu time spent up to now is       25.2 secs

     total energy              =    -553.00079267 Ry
     estimated scf accuracy    <       4.00615909 Ry

     total magnetization       =     1.32 Bohr mag/cell
     absolute magnetization    =     1.32 Bohr mag/cell

     iteration #  3     ecut=    90.00 Ry     beta= 0.20
     Davidson diagonalization with overlap
     ethr =  1.00E-02,  avg # of iterations =  1.6

     total cpu time spent up to now is       32.6 secs

     total energy              =    -553.02630587 Ry
     estimated scf accuracy    <       0.75161552 Ry

     total magnetization       =     2.26 Bohr mag/cell
     absolute magnetization    =     2.26 Bohr mag/cell

     iteration #  4     ecut=    90.00 Ry     beta= 0.20
     Davidson diagonalization with overlap
     ethr =  2.28E-03,  avg # of iterations =  2.0

     total cpu time spent up to now is       41.5 secs

     total energy              =    -553.19851050 Ry
     estimated scf accuracy    <       0.10938142 Ry

     total magnetization       =     2.21 Bohr mag/cell
     absolute magnetization    =     2.21 Bohr mag/cell

     iteration #  5     ecut=    90.00 Ry     beta= 0.20
     Davidson diagonalization with overlap
     ethr =  3.31E-04,  avg # of iterations =  1.3

     total cpu time spent up to now is       48.8 secs

     total energy              =    -553.26220298 Ry
     estimated scf accuracy    <       0.14707578 Ry

     total magnetization       =     2.22 Bohr mag/cell
     absolute magnetization    =     2.23 Bohr mag/cell

     iteration #  6     ecut=    90.00 Ry     beta= 0.20
     Davidson diagonalization with overlap
     ethr =  3.31E-04,  avg # of iterations =  2.0

     total cpu time spent up to now is       56.9 secs

     total energy              =    -553.24087736 Ry
     estimated scf accuracy    <       0.21423749 Ry

     total magnetization       =     1.65 Bohr mag/cell
     absolute magnetization    =     1.67 Bohr mag/cell

     iteration #  7     ecut=    90.00 Ry     beta= 0.20
     Davidson diagonalization with overlap
     ethr =  3.31E-04,  avg # of iterations =  1.2

     total cpu time spent up to now is       64.0 secs

     total energy              =    -553.24011170 Ry
     estimated scf accuracy    <       0.06009293 Ry

     total magnetization       =     1.43 Bohr mag/cell
     absolute magnetization    =     1.46 Bohr mag/cell

     iteration #  8     ecut=    90.00 Ry     beta= 0.20
     Davidson diagonalization with overlap
     ethr =  1.82E-04,  avg # of iterations =  1.4

     total cpu time spent up to now is       71.3 secs

     total energy              =    -553.23899112 Ry
     estimated scf accuracy    <       0.02181209 Ry

     total magnetization       =     1.28 Bohr mag/cell
     absolute magnetization    =     1.30 Bohr mag/cell

     iteration #  9     ecut=    90.00 Ry     beta= 0.20
     Davidson diagonalization with overlap
     ethr =  6.61E-05,  avg # of iterations =  1.6

     total cpu time spent up to now is       78.9 secs

     total energy              =    -553.24128548 Ry
     estimated scf accuracy    <       0.00264152 Ry

     total magnetization       =     1.10 Bohr mag/cell
     absolute magnetization    =     1.11 Bohr mag/cell

     iteration # 10     ecut=    90.00 Ry     beta= 0.20
     Davidson diagonalization with overlap
     ethr =  8.00E-06,  avg # of iterations =  1.6

     total cpu time spent up to now is       86.4 secs

     total energy              =    -553.24169367 Ry
     estimated scf accuracy    <       0.00314543 Ry

     total magnetization       =     1.03 Bohr mag/cell
     absolute magnetization    =     1.04 Bohr mag/cell

     iteration # 11     ecut=    90.00 Ry     beta= 0.20
     Davidson diagonalization with overlap
     ethr =  8.00E-06,  avg # of iterations =  1.1

     total cpu time spent up to now is       93.6 secs

     total energy              =    -553.24068180 Ry
     estimated scf accuracy    <       0.00280747 Ry

     total magnetization       =     0.91 Bohr mag/cell
     absolute magnetization    =     0.92 Bohr mag/cell

     iteration # 12     ecut=    90.00 Ry     beta= 0.20
     Davidson diagonalization with overlap
     ethr =  8.00E-06,  avg # of iterations =  2.0

     total cpu time spent up to now is      101.6 secs

     total energy              =    -553.24264302 Ry
     estimated scf accuracy    <       0.00033463 Ry

     total magnetization       =     0.59 Bohr mag/cell
     absolute magnetization    =     0.60 Bohr mag/cell

     iteration # 13     ecut=    90.00 Ry     beta= 0.20
     Davidson diagonalization with overlap
     ethr =  1.01E-06,  avg # of iterations =  1.8

     total cpu time spent up to now is      109.5 secs

     total energy              =    -553.24280549 Ry
     estimated scf accuracy    <       0.00013007 Ry

     total magnetization       =     0.49 Bohr mag/cell
     absolute magnetization    =     0.50 Bohr mag/cell

     iteration # 14     ecut=    90.00 Ry     beta= 0.20
     Davidson diagonalization with overlap
     ethr =  3.94E-07,  avg # of iterations =  2.4

     total cpu time spent up to now is      118.9 secs

     total energy              =    -553.24264588 Ry
     estimated scf accuracy    <       0.00025223 Ry

     total magnetization       =     0.37 Bohr mag/cell
     absolute magnetization    =     0.38 Bohr mag/cell

     iteration # 15     ecut=    90.00 Ry     beta= 0.20
     Davidson diagonalization with overlap
     ethr =  3.94E-07,  avg # of iterations =  2.3

     total cpu time spent up to now is      128.4 secs

     total energy              =    -553.24247198 Ry
     estimated scf accuracy    <       0.00015708 Ry

     total magnetization       =     0.20 Bohr mag/cell
     absolute magnetization    =     0.21 Bohr mag/cell

     iteration # 16     ecut=    90.00 Ry     beta= 0.20
     Davidson diagonalization with overlap
     ethr =  3.94E-07,  avg # of iterations =  2.3

     total cpu time spent up to now is      137.3 secs

     total energy              =    -553.24083669 Ry
     estimated scf accuracy    <       0.00015610 Ry

     total magnetization       =     0.38 Bohr mag/cell
     absolute magnetization    =     0.39 Bohr mag/cell

     iteration # 17     ecut=    90.00 Ry     beta= 0.20
     Davidson diagonalization with overlap
     ethr =  3.94E-07,  avg # of iterations =  3.1

     total cpu time spent up to now is      147.7 secs

     total energy              =    -553.24323856 Ry
     estimated scf accuracy    <       0.00002307 Ry

     total magnetization       =     0.03 Bohr mag/cell
     absolute magnetization    =     0.03 Bohr mag/cell

     iteration # 18     ecut=    90.00 Ry     beta= 0.20
     Davidson diagonalization with overlap
     ethr =  6.99E-08,  avg # of iterations =  1.5

     total cpu time spent up to now is      155.2 secs

     total energy              =    -553.24324166 Ry
     estimated scf accuracy    <       0.00000162 Ry

     total magnetization       =     0.05 Bohr mag/cell
     absolute magnetization    =     0.05 Bohr mag/cell

     iteration # 19     ecut=    90.00 Ry     beta= 0.20
     Davidson diagonalization with overlap
     ethr =  4.90E-09,  avg # of iterations =  2.1

     total cpu time spent up to now is      164.2 secs

     total energy              =    -553.24324069 Ry
     estimated scf accuracy    <       0.00000114 Ry

     total magnetization       =     0.03 Bohr mag/cell
     absolute magnetization    =     0.03 Bohr mag/cell

     iteration # 20     ecut=    90.00 Ry     beta= 0.20
     Davidson diagonalization with overlap
     ethr =  3.45E-09,  avg # of iterations =  3.0

     total cpu time spent up to now is      174.2 secs

     total energy              =    -553.24325088 Ry
     estimated scf accuracy    <       0.00000053 Ry

     total magnetization       =     0.01 Bohr mag/cell
     absolute magnetization    =     0.01 Bohr mag/cell

     iteration # 21     ecut=    90.00 Ry     beta= 0.20
     Davidson diagonalization with overlap
     ethr =  1.62E-09,  avg # of iterations =  2.1

     total cpu time spent up to now is      183.4 secs

     total energy              =    -553.24325230 Ry
     estimated scf accuracy    <       0.00000028 Ry

     total magnetization       =    -0.00 Bohr mag/cell
     absolute magnetization    =     0.00 Bohr mag/cell

     iteration # 22     ecut=    90.00 Ry     beta= 0.20
     Davidson diagonalization with overlap
     ethr =  8.59E-10,  avg # of iterations =  1.1

     total cpu time spent up to now is      190.6 secs

     total energy              =    -553.24325244 Ry
     estimated scf accuracy    <       0.00000001 Ry

     total magnetization       =     0.00 Bohr mag/cell
     absolute magnetization    =     0.00 Bohr mag/cell

     iteration # 23     ecut=    90.00 Ry     beta= 0.20
     Davidson diagonalization with overlap
     ethr =  4.42E-11,  avg # of iterations =  2.0

     Magnetic moment per site:
     atom:    1    charge:   15.4741    magn:   -0.0001    constr:    0.0000
     atom:    2    charge:   12.1856    magn:   -0.0007    constr:    0.0000

     total cpu time spent up to now is      198.7 secs

     End of self-consistent calculation

     Number of k-points >= 100: set verbosity='high' to print the bands.

     the Fermi energy is    39.2681 ev

!    total energy              =    -553.24325256 Ry
     estimated scf accuracy    <          2.5E-09 Ry
     smearing contrib. (-TS)   =      -0.00164670 Ry
     internal energy E=F+TS    =    -553.24160586 Ry

     The total energy is F=E-TS. E is the sum of the following terms:
     one-electron contribution =    -153.74692270 Ry
     hartree contribution      =     120.44326803 Ry
     xc contribution           =     -63.99827261 Ry
     ewald contribution        =    -455.93967857 Ry

     total magnetization       =    -0.00 Bohr mag/cell
     absolute magnetization    =     0.00 Bohr mag/cell

     convergence has been achieved in  23 iterations

     Forces acting on atoms (cartesian axes, Ry/au):

     atom    1 type  1   force =    -0.00000084   -0.00000044   -0.00000365
     atom    2 type  2   force =     0.00000084    0.00000044    0.00000365

     Total force =     0.000005     Total SCF correction =     0.000014
     SCF correction compared to forces is large: reduce conv_thr to get better values


     Computing stress (Cartesian axis) and pressure

          total   stress  (Ry/bohr**3)                   (kbar)     P=     7014.54
   0.04768390   0.00000003   0.00000000         7014.54        0.00        0.00
   0.00000003   0.04768381   0.00000001            0.00     7014.53        0.00
   0.00000000   0.00000001   0.04768389            0.00        0.00     7014.54


     BFGS Geometry Optimization
     Energy error            =      0.0E+00
     Gradient error          =      3.6E-06
     Cell gradient error     =      4.8E-02


     number of scf cycles    =   1
     number of bfgs steps    =   0

     enthalpy new            =    -553.2432525591 Ry

     new trust radius        =       0.5000000000 bohr
     new conv_thr            =       0.0000000100 Ry

     new unit-cell volume =    166.17043 a.u.^3 (    24.62392 Ang^3 )
     density =      7.66282 g/cm^3

CELL_PARAMETERS (alat=  6.81130681)
  -0.640635290  -0.000000040   0.640635287
   0.000000094   0.640635097   0.640635341
  -0.640635220   0.640634973   0.000000030

ATOMIC_POSITIONS (alat)
Ni            0.6406353582        0.6406351595        0.6406351911
Mn            0.0000000375        0.0000000194        0.0000001619



     Writing output data file ./pwscf.save/
     NEW-OLD atomic charge density approx. for the potential

     Check: negative core charge=   -0.000049
     extrapolated charge   48.99964, renormalised to   33.00000
     Generating pointlists ...

     total cpu time spent up to now is      202.4 secs

     Self-consistent Calculation

     iteration #  1     ecut=    90.00 Ry     beta= 0.20
     Davidson diagonalization with overlap
     c_bands:  2 eigenvalues not converged
     c_bands:  1 eigenvalues not converged
     c_bands:  2 eigenvalues not converged
     c_bands:  2 eigenvalues not converged
     c_bands:  1 eigenvalues not converged
     c_bands:  2 eigenvalues not converged
     c_bands:  2 eigenvalues not converged
     c_bands:  1 eigenvalues not converged
     c_bands:  2 eigenvalues not converged
     c_bands:  1 eigenvalues not converged
     c_bands:  1 eigenvalues not converged
     c_bands:  2 eigenvalues not converged
     c_bands:  2 eigenvalues not converged
     c_bands:  1 eigenvalues not converged
     c_bands:  1 eigenvalues not converged
     c_bands:  1 eigenvalues not converged
     c_bands:  2 eigenvalues not converged
     c_bands:  2 eigenvalues not converged
     c_bands:  2 eigenvalues not converged
     c_bands:  1 eigenvalues not converged
     c_bands:  2 eigenvalues not converged
     c_bands:  1 eigenvalues not converged
     c_bands:  1 eigenvalues not converged
     c_bands:  2 eigenvalues not converged
     c_bands:  1 eigenvalues not converged
     c_bands:  2 eigenvalues not converged
     c_bands:  1 eigenvalues not converged
     c_bands:  1 eigenvalues not converged
     c_bands:  1 eigenvalues not converged
     c_bands:  1 eigenvalues not converged
     c_bands:  2 eigenvalues not converged
     c_bands:  2 eigenvalues not converged
     c_bands:  1 eigenvalues not converged
     c_bands:  1 eigenvalues not converged
     c_bands:  1 eigenvalues not converged
     c_bands:  2 eigenvalues not converged
     c_bands:  1 eigenvalues not converged
     c_bands:  2 eigenvalues not converged
     c_bands:  1 eigenvalues not converged
     c_bands:  1 eigenvalues not converged
     c_bands:  1 eigenvalues not converged
     c_bands:  2 eigenvalues not converged
     c_bands:  1 eigenvalues not converged
     c_bands:  1 eigenvalues not converged
     c_bands:  2 eigenvalues not converged
     c_bands:  2 eigenvalues not converged
     c_bands:  2 eigenvalues not converged
     c_bands:  1 eigenvalues not converged
     c_bands:  2 eigenvalues not converged
     c_bands:  1 eigenvalues not converged
     c_bands:  2 eigenvalues not converged
     c_bands:  1 eigenvalues not converged
     c_bands:  1 eigenvalues not converged
     c_bands:  2 eigenvalues not converged
     c_bands:  2 eigenvalues not converged
     c_bands:  1 eigenvalues not converged
     c_bands:  1 eigenvalues not converged
     c_bands:  2 eigenvalues not converged
     c_bands:  1 eigenvalues not converged
     c_bands:  2 eigenvalues not converged
     c_bands:  1 eigenvalues not converged
     c_bands:  1 eigenvalues not converged
     c_bands:  2 eigenvalues not converged
     c_bands:  1 eigenvalues not converged
     c_bands:  1 eigenvalues not converged
     c_bands:  2 eigenvalues not converged
     c_bands:  2 eigenvalues not converged
     c_bands:  1 eigenvalues not converged
     c_bands:  1 eigenvalues not converged
     c_bands:  1 eigenvalues not converged
     c_bands:  1 eigenvalues not converged
     c_bands:  2 eigenvalues not converged
     c_bands:  2 eigenvalues not converged
     c_bands:  1 eigenvalues not converged
     c_bands:  1 eigenvalues not converged
     c_bands:  1 eigenvalues not converged
     c_bands:  2 eigenvalues not converged
     c_bands:  1 eigenvalues not converged
     c_bands:  1 eigenvalues not converged
     c_bands:  2 eigenvalues not converged
     c_bands:  1 eigenvalues not converged
     c_bands:  2 eigenvalues not converged
     c_bands:  2 eigenvalues not converged
     c_bands:  2 eigenvalues not converged
     c_bands:  1 eigenvalues not converged
     c_bands:  2 eigenvalues not converged
     c_bands:  1 eigenvalues not converged
     c_bands:  1 eigenvalues not converged
     c_bands:  2 eigenvalues not converged
     c_bands:  1 eigenvalues not converged
     c_bands:  2 eigenvalues not converged
     c_bands:  2 eigenvalues not converged
     c_bands:  1 eigenvalues not converged
     c_bands:  1 eigenvalues not converged
     c_bands:  2 eigenvalues not converged
     c_bands:  2 eigenvalues not converged
     c_bands:  1 eigenvalues not converged
     c_bands:  1 eigenvalues not converged
     c_bands:  2 eigenvalues not converged
     c_bands:  1 eigenvalues not converged
     c_bands:  1 eigenvalues not converged
     c_bands:  2 eigenvalues not converged
     c_bands:  2 eigenvalues not converged
     c_bands:  1 eigenvalues not converged
     c_bands:  2 eigenvalues not converged
     c_bands:  2 eigenvalues not converged
     c_bands:  2 eigenvalues not converged
     c_bands:  1 eigenvalues not converged
     c_bands:  1 eigenvalues not converged
     c_bands:  1 eigenvalues not converged
     c_bands:  2 eigenvalues not converged
     c_bands:  2 eigenvalues not converged
     c_bands:  1 eigenvalues not converged
     c_bands:  1 eigenvalues not converged
     c_bands:  1 eigenvalues not converged
     c_bands:  1 eigenvalues not converged
     c_bands:  1 eigenvalues not converged
     c_bands:  1 eigenvalues not converged
     c_bands:  1 eigenvalues not converged
     c_bands:  2 eigenvalues not converged
     c_bands:  1 eigenvalues not converged
     c_bands:  1 eigenvalues not converged
     c_bands:  1 eigenvalues not converged
     c_bands:  2 eigenvalues not converged
     c_bands:  1 eigenvalues not converged
     c_bands:  1 eigenvalues not converged
     c_bands:  1 eigenvalues not converged
     c_bands:  1 eigenvalues not converged
     c_bands:  1 eigenvalues not converged
     c_bands:  2 eigenvalues not converged
     c_bands:  2 eigenvalues not converged
     c_bands:  1 eigenvalues not converged
     c_bands:  1 eigenvalues not converged
     c_bands:  2 eigenvalues not converged
     c_bands:  1 eigenvalues not converged
     c_bands:  1 eigenvalues not converged
     c_bands:  1 eigenvalues not converged
     c_bands:  1 eigenvalues not converged
     c_bands:  1 eigenvalues not converged
     c_bands:  2 eigenvalues not converged
     c_bands:  1 eigenvalues not converged
     c_bands:  2 eigenvalues not converged
     c_bands:  1 eigenvalues not converged
     c_bands:  1 eigenvalues not converged
     c_bands:  2 eigenvalues not converged
     c_bands:  2 eigenvalues not converged
     c_bands:  2 eigenvalues not converged
     c_bands:  2 eigenvalues not converged
     c_bands:  1 eigenvalues not converged
     c_bands:  1 eigenvalues not converged
     c_bands:  2 eigenvalues not converged
     c_bands:  1 eigenvalues not converged
     c_bands:  2 eigenvalues not converged
     c_bands:  1 eigenvalues not converged
     c_bands:  2 eigenvalues not converged
     c_bands:  2 eigenvalues not converged
     c_bands:  1 eigenvalues not converged
     c_bands:  2 eigenvalues not converged
     c_bands:  2 eigenvalues not converged
     c_bands:  1 eigenvalues not converged
     c_bands:  2 eigenvalues not converged
     c_bands:  1 eigenvalues not converged
     c_bands:  1 eigenvalues not converged
     c_bands:  2 eigenvalues not converged
     c_bands:  2 eigenvalues not converged
     c_bands:  1 eigenvalues not converged
     c_bands:  1 eigenvalues not converged
     c_bands:  1 eigenvalues not converged
     c_bands:  2 eigenvalues not converged
     c_bands:  2 eigenvalues not converged
     c_bands:  2 eigenvalues not converged
     c_bands:  1 eigenvalues not converged
     c_bands:  2 eigenvalues not converged
     c_bands:  1 eigenvalues not converged
     c_bands:  1 eigenvalues not converged
     c_bands:  2 eigenvalues not converged
     c_bands:  1 eigenvalues not converged
     c_bands:  1 eigenvalues not converged
     c_bands:  2 eigenvalues not converged
     c_bands:  1 eigenvalues not converged
     c_bands:  1 eigenvalues not converged
     c_bands:  1 eigenvalues not converged
     c_bands:  1 eigenvalues not converged
     c_bands:  2 eigenvalues not converged
     c_bands:  2 eigenvalues not converged
     c_bands:  1 eigenvalues not converged
     c_bands:  1 eigenvalues not converged
     c_bands:  1 eigenvalues not converged
     c_bands:  2 eigenvalues not converged
     c_bands:  1 eigenvalues not converged
     c_bands:  2 eigenvalues not converged
     c_bands:  1 eigenvalues not converged
     c_bands:  1 eigenvalues not converged
     c_bands:  2 eigenvalues not converged
     c_bands:  1 eigenvalues not converged
     c_bands:  1 eigenvalues not converged
     c_bands:  2 eigenvalues not converged
     c_bands:  2 eigenvalues not converged
     c_bands:  2 eigenvalues not converged
     c_bands:  2 eigenvalues not converged
     c_bands:  1 eigenvalues not converged
     c_bands:  2 eigenvalues not converged
     c_bands:  1 eigenvalues not converged
     c_bands:  2 eigenvalues not converged
     c_bands:  1 eigenvalues not converged
     c_bands:  1 eigenvalues not converged
     c_bands:  2 eigenvalues not converged
     c_bands:  2 eigenvalues not converged
     c_bands:  1 eigenvalues not converged
     c_bands:  1 eigenvalues not converged
     c_bands:  1 eigenvalues not converged
     c_bands:  2 eigenvalues not converged
     c_bands:  1 eigenvalues not converged
     c_bands:  2 eigenvalues not converged
     c_bands:  1 eigenvalues not converged
     c_bands:  1 eigenvalues not converged
     c_bands:  2 eigenvalues not converged
     c_bands:  1 eigenvalues not converged
     c_bands:  1 eigenvalues not converged
     c_bands:  2 eigenvalues not converged
     c_bands:  2 eigenvalues not converged
     c_bands:  1 eigenvalues not converged
     c_bands:  1 eigenvalues not converged
     c_bands:  1 eigenvalues not converged
     c_bands:  1 eigenvalues not converged
     c_bands:  2 eigenvalues not converged
     c_bands:  2 eigenvalues not converged
     c_bands:  1 eigenvalues not converged
     c_bands:  1 eigenvalues not converged
     c_bands:  1 eigenvalues not converged
     c_bands:  2 eigenvalues not converged
     c_bands:  1 eigenvalues not converged
     c_bands:  1 eigenvalues not converged
     c_bands:  2 eigenvalues not converged
     c_bands:  1 eigenvalues not converged
     c_bands:  2 eigenvalues not converged
     c_bands:  2 eigenvalues not converged
     c_bands:  2 eigenvalues not converged
     c_bands:  2 eigenvalues not converged
     c_bands:  1 eigenvalues not converged
     c_bands:  1 eigenvalues not converged
     c_bands:  2 eigenvalues not converged
     c_bands:  1 eigenvalues not converged
     c_bands:  1 eigenvalues not converged
     c_bands:  1 eigenvalues not converged
     c_bands:  2 eigenvalues not converged
     c_bands:  1 eigenvalues not converged
     c_bands:  2 eigenvalues not converged
     c_bands:  2 eigenvalues not converged
     c_bands:  2 eigenvalues not converged
     c_bands:  1 eigenvalues not converged
     c_bands:  1 eigenvalues not converged
     c_bands:  2 eigenvalues not converged
     c_bands:  2 eigenvalues not converged
     c_bands:  1 eigenvalues not converged
     c_bands:  1 eigenvalues not converged
     c_bands:  2 eigenvalues not converged
     c_bands:  1 eigenvalues not converged
     c_bands:  1 eigenvalues not converged
     c_bands:  2 eigenvalues not converged
     c_bands:  2 eigenvalues not converged
     c_bands:  1 eigenvalues not converged
     c_bands:  2 eigenvalues not converged
     c_bands:  2 eigenvalues not converged
     c_bands:  2 eigenvalues not converged
     c_bands:  1 eigenvalues not converged
     c_bands:  1 eigenvalues not converged
     c_bands:  1 eigenvalues not converged
     c_bands:  2 eigenvalues not converged
     c_bands:  2 eigenvalues not converged
     c_bands:  1 eigenvalues not converged
     c_bands:  1 eigenvalues not converged
     c_bands:  1 eigenvalues not converged
     c_bands:  1 eigenvalues not converged
     c_bands:  1 eigenvalues not converged
     c_bands:  1 eigenvalues not converged
     c_bands:  1 eigenvalues not converged
     c_bands:  2 eigenvalues not converged
     c_bands:  1 eigenvalues not converged
     c_bands:  1 eigenvalues not converged
     c_bands:  1 eigenvalues not converged
     c_bands:  2 eigenvalues not converged
     c_bands:  1 eigenvalues not converged
     c_bands:  1 eigenvalues not converged
     c_bands:  1 eigenvalues not converged
     c_bands:  1 eigenvalues not converged
     c_bands:  1 eigenvalues not converged
     c_bands:  2 eigenvalues not converged
     c_bands:  2 eigenvalues not converged
     c_bands:  1 eigenvalues not converged
     c_bands:  1 eigenvalues not converged
     c_bands:  2 eigenvalues not converged
     c_bands:  1 eigenvalues not converged
     c_bands:  1 eigenvalues not converged
     c_bands:  1 eigenvalues not converged
     c_bands:  1 eigenvalues not converged
     c_bands:  1 eigenvalues not converged
     c_bands:  2 eigenvalues not converged
     c_bands:  1 eigenvalues not converged
     c_bands:  2 eigenvalues not converged
     c_bands:  1 eigenvalues not converged
     c_bands:  1 eigenvalues not converged
     c_bands:  2 eigenvalues not converged
     c_bands:  2 eigenvalues not converged
     c_bands:  2 eigenvalues not converged
     c_bands:  2 eigenvalues not converged
     c_bands:  1 eigenvalues not converged
     c_bands:  1 eigenvalues not converged
     c_bands:  2 eigenvalues not converged
     c_bands:  1 eigenvalues not converged
     ethr =  1.00E-06,  avg # of iterations = 18.5

     total cpu time spent up to now is      247.4 secs

     total energy              =    -473.41254739 Ry
     estimated scf accuracy    <      85.54305101 Ry

     total magnetization       =    -0.00 Bohr mag/cell
     absolute magnetization    =     0.00 Bohr mag/cell

     iteration #  2     ecut=    90.00 Ry     beta= 0.20
     Davidson diagonalization with overlap
     ethr =  1.00E-02,  avg # of iterations =  4.8

     total cpu time spent up to now is      263.2 secs

     total energy              =    -565.79741865 Ry
     estimated scf accuracy    <      53.07247903 Ry

     total magnetization       =    -0.01 Bohr mag/cell
     absolute magnetization    =     0.01 Bohr mag/cell

     iteration #  3     ecut=    90.00 Ry     beta= 0.20
     Davidson diagonalization with overlap
     ethr =  1.00E-02,  avg # of iterations =  2.0

     total cpu time spent up to now is      272.2 secs

     total energy              =    -553.56326955 Ry
     estimated scf accuracy    <      32.98878702 Ry

     total magnetization       =    -0.01 Bohr mag/cell
     absolute magnetization    =     0.01 Bohr mag/cell

     iteration #  4     ecut=    90.00 Ry     beta= 0.20
     Davidson diagonalization with overlap
     ethr =  1.00E-02,  avg # of iterations =  2.0

     total cpu time spent up to now is      282.1 secs

     total energy              =    -555.25220663 Ry
     estimated scf accuracy    <       6.57726134 Ry

     total magnetization       =    -0.01 Bohr mag/cell
     absolute magnetization    =     0.01 Bohr mag/cell

     iteration #  5     ecut=    90.00 Ry     beta= 0.20
     Davidson diagonalization with overlap
     ethr =  1.00E-02,  avg # of iterations =  2.0

     total cpu time spent up to now is      289.8 secs

     total energy              =    -553.74432275 Ry
     estimated scf accuracy    <       6.60292548 Ry

     total magnetization       =    -0.00 Bohr mag/cell
     absolute magnetization    =     0.00 Bohr mag/cell

     iteration #  6     ecut=    90.00 Ry     beta= 0.20
     Davidson diagonalization with overlap
     ethr =  1.00E-02,  avg # of iterations =  2.1

     total cpu time spent up to now is      297.9 secs

     total energy              =    -554.22262257 Ry
     estimated scf accuracy    <       0.82186084 Ry

     total magnetization       =    -0.02 Bohr mag/cell
     absolute magnetization    =     0.02 Bohr mag/cell

     iteration #  7     ecut=    90.00 Ry     beta= 0.20
     Davidson diagonalization with overlap
     ethr =  2.49E-03,  avg # of iterations =  1.2

     total cpu time spent up to now is      305.2 secs

     total energy              =    -554.44244184 Ry
     estimated scf accuracy    <       1.49431670 Ry

     total magnetization       =    -0.01 Bohr mag/cell
     absolute magnetization    =     0.01 Bohr mag/cell

     iteration #  8     ecut=    90.00 Ry     beta= 0.20
     Davidson diagonalization with overlap
     ethr =  2.49E-03,  avg # of iterations =  1.0

     total cpu time spent up to now is      312.3 secs

     total energy              =    -554.46808486 Ry
     estimated scf accuracy    <       1.16801347 Ry

     total magnetization       =    -0.01 Bohr mag/cell
     absolute magnetization    =     0.01 Bohr mag/cell

     iteration #  9     ecut=    90.00 Ry     beta= 0.20
     Davidson diagonalization with overlap
     ethr =  2.49E-03,  avg # of iterations =  1.0

     total cpu time spent up to now is      319.3 secs

     total energy              =    -553.87367148 Ry
     estimated scf accuracy    <       1.41013640 Ry

     total magnetization       =    -0.01 Bohr mag/cell
     absolute magnetization    =     0.01 Bohr mag/cell

     iteration # 10     ecut=    90.00 Ry     beta= 0.20
     Davidson diagonalization with overlap
     ethr =  2.49E-03,  avg # of iterations =  2.5

     total cpu time spent up to now is      328.0 secs

     total energy              =    -556.58172637 Ry
     estimated scf accuracy    <      19.20731914 Ry

     total magnetization       =    -0.01 Bohr mag/cell
     absolute magnetization    =     0.01 Bohr mag/cell

     iteration # 11     ecut=    90.00 Ry     beta= 0.20
     Davidson diagonalization with overlap
     ethr =  2.49E-03,  avg # of iterations =  2.8

     total cpu time spent up to now is      336.4 secs

     total energy              =    -556.21646476 Ry
     estimated scf accuracy    <      32.29115071 Ry

     total magnetization       =    -0.00 Bohr mag/cell
     absolute magnetization    =     0.00 Bohr mag/cell

     iteration # 12     ecut=    90.00 Ry     beta= 0.20
     Davidson diagonalization with overlap
     ethr =  2.49E-03,  avg # of iterations =  1.0

     total cpu time spent up to now is      343.3 secs

     total energy              =    -555.98236394 Ry
     estimated scf accuracy    <      28.58386878 Ry

     total magnetization       =    -0.01 Bohr mag/cell
     absolute magnetization    =     0.01 Bohr mag/cell

     iteration # 13     ecut=    90.00 Ry     beta= 0.20
     Davidson diagonalization with overlap
     ethr =  2.49E-03,  avg # of iterations =  1.2

     total cpu time spent up to now is      350.4 secs

     total energy              =    -557.99242852 Ry
     estimated scf accuracy    <      25.98506386 Ry

     total magnetization       =    -0.01 Bohr mag/cell
     absolute magnetization    =     0.01 Bohr mag/cell

     iteration # 14     ecut=    90.00 Ry     beta= 0.20
     Davidson diagonalization with overlap
     ethr =  2.49E-03,  avg # of iterations =  3.0

     total cpu time spent up to now is      358.6 secs

     total energy              =    -553.64823825 Ry
     estimated scf accuracy    <      40.53392518 Ry

     total magnetization       =    -0.01 Bohr mag/cell
     absolute magnetization    =     0.01 Bohr mag/cell

     iteration # 15     ecut=    90.00 Ry     beta= 0.20
     Davidson diagonalization with overlap
     ethr =  2.49E-03,  avg # of iterations =  3.5

     total cpu time spent up to now is      368.6 secs

     total energy              =    -554.34565773 Ry
     estimated scf accuracy    <       6.31095274 Ry

     total magnetization       =    -0.02 Bohr mag/cell
     absolute magnetization    =     0.02 Bohr mag/cell

     iteration # 16     ecut=    90.00 Ry     beta= 0.20
     Davidson diagonalization with overlap
     ethr =  2.49E-03,  avg # of iterations =  1.1

     total cpu time spent up to now is      375.7 secs

     total energy              =    -554.47761101 Ry
     estimated scf accuracy    <       1.80586897 Ry

     total magnetization       =    -0.01 Bohr mag/cell
     absolute magnetization    =     0.01 Bohr mag/cell

     iteration # 17     ecut=    90.00 Ry     beta= 0.20
     Davidson diagonalization with overlap
     ethr =  2.49E-03,  avg # of iterations =  1.0

     total cpu time spent up to now is      382.7 secs

     total energy              =    -554.04781471 Ry
     estimated scf accuracy    <       4.31175651 Ry

     total magnetization       =    -0.01 Bohr mag/cell
     absolute magnetization    =     0.01 Bohr mag/cell

     iteration # 18     ecut=    90.00 Ry     beta= 0.20
     Davidson diagonalization with overlap
     ethr =  2.49E-03,  avg # of iterations =  1.2

     total cpu time spent up to now is      389.8 secs

     total energy              =    -554.32444099 Ry
     estimated scf accuracy    <       0.35105213 Ry

     total magnetization       =     0.00 Bohr mag/cell
     absolute magnetization    =     0.00 Bohr mag/cell

     iteration # 19     ecut=    90.00 Ry     beta= 0.20
     Davidson diagonalization with overlap
     ethr =  1.06E-03,  avg # of iterations =  1.0

     total cpu time spent up to now is      396.9 secs

     total energy              =    -554.33101526 Ry
     estimated scf accuracy    <       0.08695293 Ry

     total magnetization       =     0.00 Bohr mag/cell
     absolute magnetization    =     0.00 Bohr mag/cell

     iteration # 20     ecut=    90.00 Ry     beta= 0.20
     Davidson diagonalization with overlap
     ethr =  2.63E-04,  avg # of iterations =  1.0

     total cpu time spent up to now is      403.9 secs

     total energy              =    -554.32628315 Ry
     estimated scf accuracy    <       0.08003375 Ry

     total magnetization       =     0.00 Bohr mag/cell
     absolute magnetization    =     0.00 Bohr mag/cell

     iteration # 21     ecut=    90.00 Ry     beta= 0.20
     Davidson diagonalization with overlap
     ethr =  2.43E-04,  avg # of iterations =  1.0

     total cpu time spent up to now is      410.9 secs

     total energy              =    -554.32708725 Ry
     estimated scf accuracy    <       0.01296109 Ry

     total magnetization       =     0.00 Bohr mag/cell
     absolute magnetization    =     0.01 Bohr mag/cell

     iteration # 22     ecut=    90.00 Ry     beta= 0.20
     Davidson diagonalization with overlap
     ethr =  3.93E-05,  avg # of iterations =  1.2

     total cpu time spent up to now is      418.1 secs

     total energy              =    -554.32694778 Ry
     estimated scf accuracy    <       0.00325730 Ry

     total magnetization       =    -0.00 Bohr mag/cell
     absolute magnetization    =     0.01 Bohr mag/cell

     iteration # 23     ecut=    90.00 Ry     beta= 0.20
     Davidson diagonalization with overlap
     ethr =  9.87E-06,  avg # of iterations =  2.2

     total cpu time spent up to now is      425.9 secs

     total energy              =    -554.32814030 Ry
     estimated scf accuracy    <       0.00595043 Ry

     total magnetization       =    -0.00 Bohr mag/cell
     absolute magnetization    =     0.01 Bohr mag/cell

     iteration # 24     ecut=    90.00 Ry     beta= 0.20
     Davidson diagonalization with overlap
     ethr =  9.87E-06,  avg # of iterations =  1.0

     total cpu time spent up to now is      433.0 secs

     total energy              =    -554.32712272 Ry
     estimated scf accuracy    <       0.01968038 Ry

     total magnetization       =     0.00 Bohr mag/cell
     absolute magnetization    =     0.01 Bohr mag/cell

     iteration # 25     ecut=    90.00 Ry     beta= 0.20
     Davidson diagonalization with overlap
     ethr =  9.87E-06,  avg # of iterations =  1.1

     total cpu time spent up to now is      440.0 secs

     total energy              =    -554.32735324 Ry
     estimated scf accuracy    <       0.00262969 Ry

     total magnetization       =     0.01 Bohr mag/cell
     absolute magnetization    =     0.01 Bohr mag/cell

     iteration # 26     ecut=    90.00 Ry     beta= 0.20
     Davidson diagonalization with overlap
     ethr =  7.97E-06,  avg # of iterations =  1.9

     total cpu time spent up to now is      447.7 secs

     total energy              =    -554.32592379 Ry
     estimated scf accuracy    <       0.02479184 Ry

     total magnetization       =    -0.02 Bohr mag/cell
     absolute magnetization    =     0.02 Bohr mag/cell

     iteration # 27     ecut=    90.00 Ry     beta= 0.20
     Davidson diagonalization with overlap
     ethr =  7.97E-06,  avg # of iterations =  1.7

     total cpu time spent up to now is      455.2 secs

     total energy              =    -554.32705018 Ry
     estimated scf accuracy    <       0.00016770 Ry

     total magnetization       =    -0.01 Bohr mag/cell
     absolute magnetization    =     0.01 Bohr mag/cell

     iteration # 28     ecut=    90.00 Ry     beta= 0.20
     Davidson diagonalization with overlap
     ethr =  5.08E-07,  avg # of iterations =  2.2

     total cpu time spent up to now is      463.9 secs

     total energy              =    -554.32682920 Ry
     estimated scf accuracy    <       0.00888066 Ry

     total magnetization       =    -0.04 Bohr mag/cell
     absolute magnetization    =     0.04 Bohr mag/cell

     iteration # 29     ecut=    90.00 Ry     beta= 0.20
     Davidson diagonalization with overlap
     ethr =  5.08E-07,  avg # of iterations =  2.1

     total cpu time spent up to now is      472.5 secs

     total energy              =    -554.32711948 Ry
     estimated scf accuracy    <       0.00012914 Ry

     total magnetization       =    -0.04 Bohr mag/cell
     absolute magnetization    =     0.04 Bohr mag/cell

     iteration # 30     ecut=    90.00 Ry     beta= 0.20
     Davidson diagonalization with overlap
     ethr =  3.91E-07,  avg # of iterations =  1.0

     total cpu time spent up to now is      479.6 secs

     total energy              =    -554.32707371 Ry
     estimated scf accuracy    <       0.00072659 Ry

     total magnetization       =    -0.00 Bohr mag/cell
     absolute magnetization    =     0.00 Bohr mag/cell

     iteration # 31     ecut=    90.00 Ry     beta= 0.20
     Davidson diagonalization with overlap
     ethr =  3.91E-07,  avg # of iterations =  1.7

     total cpu time spent up to now is      487.1 secs

     total energy              =    -554.32710599 Ry
     estimated scf accuracy    <       0.00000197 Ry

     total magnetization       =    -0.00 Bohr mag/cell
     absolute magnetization    =     0.00 Bohr mag/cell

     iteration # 32     ecut=    90.00 Ry     beta= 0.20
     Davidson diagonalization with overlap
     ethr =  5.98E-09,  avg # of iterations =  2.4

     total cpu time spent up to now is      496.2 secs

     total energy              =    -554.32710645 Ry
     estimated scf accuracy    <       0.00000493 Ry

     total magnetization       =     0.00 Bohr mag/cell
     absolute magnetization    =     0.00 Bohr mag/cell

     iteration # 33     ecut=    90.00 Ry     beta= 0.20
     Davidson diagonalization with overlap
     ethr =  5.98E-09,  avg # of iterations =  1.0

     total cpu time spent up to now is      503.3 secs

     total energy              =    -554.32710666 Ry
     estimated scf accuracy    <       0.00000011 Ry

     total magnetization       =     0.00 Bohr mag/cell
     absolute magnetization    =     0.00 Bohr mag/cell

     iteration # 34     ecut=    90.00 Ry     beta= 0.20
     Davidson diagonalization with overlap
     ethr =  3.39E-10,  avg # of iterations =  1.1

     total cpu time spent up to now is      510.4 secs

     total energy              =    -554.32710669 Ry
     estimated scf accuracy    <       0.00000006 Ry

     total magnetization       =     0.00 Bohr mag/cell
     absolute magnetization    =     0.00 Bohr mag/cell

     iteration # 35     ecut=    90.00 Ry     beta= 0.20
     Davidson diagonalization with overlap
     ethr =  1.75E-10,  avg # of iterations =  1.6

     total cpu time spent up to now is      518.2 secs

     total energy              =    -554.32710670 Ry
     estimated scf accuracy    <       0.00000004 Ry

     total magnetization       =     0.00 Bohr mag/cell
     absolute magnetization    =     0.00 Bohr mag/cell

     iteration # 36     ecut=    90.00 Ry     beta= 0.20
     Davidson diagonalization with overlap
     ethr =  1.17E-10,  avg # of iterations =  1.0

     Magnetic moment per site:
     atom:    1    charge:   14.9886    magn:    0.0005    constr:    0.0000
     atom:    2    charge:   11.5515    magn:   -0.0000    constr:    0.0000

     total cpu time spent up to now is      525.3 secs

     End of self-consistent calculation

     Number of k-points >= 100: set verbosity='high' to print the bands.

     the Fermi energy is    16.4888 ev

!    total energy              =    -554.32710671 Ry
     estimated scf accuracy    <          9.3E-09 Ry
     smearing contrib. (-TS)   =      -0.00464783 Ry
     internal energy E=F+TS    =    -554.32245888 Ry

     The total energy is F=E-TS. E is the sum of the following terms:
     one-electron contribution =    -308.87472073 Ry
     hartree contribution      =     172.40040905 Ry
     xc contribution           =     -61.99846447 Ry
     ewald contribution        =    -355.84968272 Ry

     total magnetization       =     0.00 Bohr mag/cell
     absolute magnetization    =     0.00 Bohr mag/cell

     convergence has been achieved in  36 iterations

     Forces acting on atoms (cartesian axes, Ry/au):

     atom    1 type  1   force =    -0.00000006   -0.00000012    0.00000050
     atom    2 type  2   force =     0.00000006    0.00000012   -0.00000050

     Total force =     0.000001     Total SCF correction =     0.000002
     SCF correction compared to forces is large: reduce conv_thr to get better values


     Computing stress (Cartesian axis) and pressure

          total   stress  (Ry/bohr**3)                   (kbar)     P=       20.29
   0.00013789  -0.00000001  -0.00000001           20.28       -0.00       -0.00
  -0.00000001   0.00013791  -0.00000000           -0.00       20.29       -0.00
  -0.00000001  -0.00000000   0.00013789           -0.00       -0.00       20.28

     Energy error            =      1.1E+00
     Gradient error          =      5.0E-07
     Cell gradient error     =      1.4E-04


     number of scf cycles    =   2
     number of bfgs steps    =   1

     enthalpy old            =    -553.2432525591 Ry
     enthalpy new            =    -554.3271067102 Ry

     CASE: enthalpy_new < enthalpy_old

     new trust radius        =       0.0027010004 bohr
     new conv_thr            =            1.0E-10 Ry

     new unit-cell volume =    166.69302 a.u.^3 (    24.70136 Ang^3 )
     density =      7.63880 g/cm^3

CELL_PARAMETERS (alat=  6.81130681)
  -0.641306118   0.000000128   0.641306103
  -0.000000184   0.641306258   0.641306046
  -0.641306111   0.641306307   0.000000135

ATOMIC_POSITIONS (alat)
Ni            0.6413057866        0.6413061206        0.6413059111
Mn            0.0000000512        0.0000000491        0.0000000389



     Writing output data file ./pwscf.save/
     NEW-OLD atomic charge density approx. for the potential

     Check: negative core charge=   -0.000049
     extrapolated charge   33.09562, renormalised to   33.00000
     Generating pointlists ...

     total cpu time spent up to now is      529.0 secs

     Self-consistent Calculation

     iteration #  1     ecut=    90.00 Ry     beta= 0.20
     Davidson diagonalization with overlap
     ethr =  1.00E-06,  avg # of iterations =  4.8

     total cpu time spent up to now is      543.6 secs

     total energy              =    -554.29535812 Ry
     estimated scf accuracy    <       0.07357353 Ry

     total magnetization       =     0.00 Bohr mag/cell
     absolute magnetization    =     0.00 Bohr mag/cell

     iteration #  2     ecut=    90.00 Ry     beta= 0.20
     Davidson diagonalization with overlap
     ethr =  2.23E-04,  avg # of iterations =  2.7

     total cpu time spent up to now is      552.7 secs

     total energy              =    -554.30970806 Ry
     estimated scf accuracy    <       0.63446277 Ry

     total magnetization       =     0.00 Bohr mag/cell
     absolute magnetization    =     0.00 Bohr mag/cell

     iteration #  3     ecut=    90.00 Ry     beta= 0.20
     Davidson diagonalization with overlap
     ethr =  2.23E-04,  avg # of iterations =  1.7

     total cpu time spent up to now is      560.2 secs

     total energy              =    -554.32722141 Ry
     estimated scf accuracy    <       0.03407566 Ry

     total magnetization       =     0.00 Bohr mag/cell
     absolute magnetization    =     0.00 Bohr mag/cell

     iteration #  4     ecut=    90.00 Ry     beta= 0.20
     Davidson diagonalization with overlap
     ethr =  1.03E-04,  avg # of iterations =  1.0

     total cpu time spent up to now is      567.3 secs

     total energy              =    -554.32741635 Ry
     estimated scf accuracy    <       0.00900199 Ry

     total magnetization       =     0.00 Bohr mag/cell
     absolute magnetization    =     0.00 Bohr mag/cell

     iteration #  5     ecut=    90.00 Ry     beta= 0.20
     Davidson diagonalization with overlap
     ethr =  2.73E-05,  avg # of iterations =  1.1

     total cpu time spent up to now is      574.4 secs

     total energy              =    -554.32732111 Ry
     estimated scf accuracy    <       0.00405501 Ry

     total magnetization       =     0.00 Bohr mag/cell
     absolute magnetization    =     0.00 Bohr mag/cell

     iteration #  6     ecut=    90.00 Ry     beta= 0.20
     Davidson diagonalization with overlap
     ethr =  1.23E-05,  avg # of iterations =  1.0

     total cpu time spent up to now is      581.4 secs

     total energy              =    -554.32747428 Ry
     estimated scf accuracy    <       0.00221936 Ry

     total magnetization       =     0.00 Bohr mag/cell
     absolute magnetization    =     0.00 Bohr mag/cell

     iteration #  7     ecut=    90.00 Ry     beta= 0.20
     Davidson diagonalization with overlap
     ethr =  6.73E-06,  avg # of iterations =  1.0

     total cpu time spent up to now is      588.5 secs

     total energy              =    -554.32738068 Ry
     estimated scf accuracy    <       0.00373516 Ry

     total magnetization       =     0.00 Bohr mag/cell
     absolute magnetization    =     0.00 Bohr mag/cell

     iteration #  8     ecut=    90.00 Ry     beta= 0.20
     Davidson diagonalization with overlap
     ethr =  6.73E-06,  avg # of iterations =  1.0

     total cpu time spent up to now is      595.5 secs

     total energy              =    -554.32713267 Ry
     estimated scf accuracy    <       0.00278342 Ry

     total magnetization       =     0.00 Bohr mag/cell
     absolute magnetization    =     0.00 Bohr mag/cell

     iteration #  9     ecut=    90.00 Ry     beta= 0.20
     Davidson diagonalization with overlap
     ethr =  6.73E-06,  avg # of iterations =  1.0

     total cpu time spent up to now is      602.5 secs

     total energy              =    -554.32714561 Ry
     estimated scf accuracy    <       0.00038186 Ry

     total magnetization       =     0.00 Bohr mag/cell
     absolute magnetization    =     0.00 Bohr mag/cell

     iteration # 10     ecut=    90.00 Ry     beta= 0.20
     Davidson diagonalization with overlap
     ethr =  1.16E-06,  avg # of iterations =  1.9

     total cpu time spent up to now is      610.2 secs

     total energy              =    -554.32716949 Ry
     estimated scf accuracy    <       0.00001522 Ry

     total magnetization       =     0.00 Bohr mag/cell
     absolute magnetization    =     0.00 Bohr mag/cell

     iteration # 11     ecut=    90.00 Ry     beta= 0.20
     Davidson diagonalization with overlap
     ethr =  4.61E-08,  avg # of iterations =  2.2

     total cpu time spent up to now is      619.0 secs

     total energy              =    -554.32717278 Ry
     estimated scf accuracy    <       0.00000593 Ry

     total magnetization       =     0.00 Bohr mag/cell
     absolute magnetization    =     0.00 Bohr mag/cell

     iteration # 12     ecut=    90.00 Ry     beta= 0.20
     Davidson diagonalization with overlap
     ethr =  1.80E-08,  avg # of iterations =  1.1

     total cpu time spent up to now is      626.1 secs

     total energy              =    -554.32717290 Ry
     estimated scf accuracy    <       0.00001163 Ry

     total magnetization       =     0.00 Bohr mag/cell
     absolute magnetization    =     0.00 Bohr mag/cell

     iteration # 13     ecut=    90.00 Ry     beta= 0.20
     Davidson diagonalization with overlap
     ethr =  1.80E-08,  avg # of iterations =  1.0

     total cpu time spent up to now is      633.1 secs

     total energy              =    -554.32717182 Ry
     estimated scf accuracy    <       0.00001171 Ry

     total magnetization       =     0.00 Bohr mag/cell
     absolute magnetization    =     0.00 Bohr mag/cell

     iteration # 14     ecut=    90.00 Ry     beta= 0.20
     Davidson diagonalization with overlap
     ethr =  1.80E-08,  avg # of iterations =  1.0

     total cpu time spent up to now is      640.2 secs

     total energy              =    -554.32717132 Ry
     estimated scf accuracy    <       0.00000724 Ry

     total magnetization       =     0.00 Bohr mag/cell
     absolute magnetization    =     0.00 Bohr mag/cell

     iteration # 15     ecut=    90.00 Ry     beta= 0.20
     Davidson diagonalization with overlap
     ethr =  1.80E-08,  avg # of iterations =  1.0

     total cpu time spent up to now is      647.2 secs

     total energy              =    -554.32717162 Ry
     estimated scf accuracy    <       0.00000337 Ry

     total magnetization       =     0.00 Bohr mag/cell
     absolute magnetization    =     0.00 Bohr mag/cell

     iteration # 16     ecut=    90.00 Ry     beta= 0.20
     Davidson diagonalization with overlap
     ethr =  1.02E-08,  avg # of iterations =  1.0

     total cpu time spent up to now is      654.2 secs

     total energy              =    -554.32717028 Ry
     estimated scf accuracy    <       0.00000458 Ry

     total magnetization       =     0.00 Bohr mag/cell
     absolute magnetization    =     0.00 Bohr mag/cell

     iteration # 17     ecut=    90.00 Ry     beta= 0.20
     Davidson diagonalization with overlap
     ethr =  1.02E-08,  avg # of iterations =  2.7

     total cpu time spent up to now is      664.2 secs

     total energy              =    -554.32717023 Ry
     estimated scf accuracy    <       0.00000496 Ry

     total magnetization       =     0.00 Bohr mag/cell
     absolute magnetization    =     0.00 Bohr mag/cell

     iteration # 18     ecut=    90.00 Ry     beta= 0.20
     Davidson diagonalization with overlap
     ethr =  1.02E-08,  avg # of iterations =  2.0

     total cpu time spent up to now is      673.4 secs

     total energy              =    -554.32717091 Ry
     estimated scf accuracy    <       0.00000067 Ry

     total magnetization       =    -0.00 Bohr mag/cell
     absolute magnetization    =     0.00 Bohr mag/cell

     iteration # 19     ecut=    90.00 Ry     beta= 0.20
     Davidson diagonalization with overlap
     ethr =  2.03E-09,  avg # of iterations =  1.4

     total cpu time spent up to now is      680.8 secs

     total energy              =    -554.32717086 Ry
     estimated scf accuracy    <       0.00000037 Ry

     total magnetization       =     0.00 Bohr mag/cell
     absolute magnetization    =     0.00 Bohr mag/cell

     iteration # 20     ecut=    90.00 Ry     beta= 0.20
     Davidson diagonalization with overlap
     ethr =  1.12E-09,  avg # of iterations =  2.0

     total cpu time spent up to now is      688.8 secs

     total energy              =    -554.32717088 Ry
     estimated scf accuracy    <       0.00000016 Ry

     total magnetization       =     0.00 Bohr mag/cell
     absolute magnetization    =     0.00 Bohr mag/cell

     iteration # 21     ecut=    90.00 Ry     beta= 0.20
     Davidson diagonalization with overlap
     ethr =  4.74E-10,  avg # of iterations =  1.1

     total cpu time spent up to now is      695.9 secs

     total energy              =    -554.32717089 Ry
     estimated scf accuracy    <       0.00000001 Ry

     total magnetization       =     0.00 Bohr mag/cell
     absolute magnetization    =     0.00 Bohr mag/cell

     iteration # 22     ecut=    90.00 Ry     beta= 0.20
     Davidson diagonalization with overlap
     ethr =  3.68E-11,  avg # of iterations =  2.0

     total cpu time spent up to now is      703.7 secs

     total energy              =    -554.32717089 Ry
     estimated scf accuracy    <          4.6E-09 Ry

     total magnetization       =     0.00 Bohr mag/cell
     absolute magnetization    =     0.00 Bohr mag/cell

     iteration # 23     ecut=    90.00 Ry     beta= 0.20
     Davidson diagonalization with overlap
     ethr =  1.38E-11,  avg # of iterations =  3.3

     total cpu time spent up to now is      714.3 secs

     total energy              =    -554.32717088 Ry
     estimated scf accuracy    <       0.00000002 Ry

     total magnetization       =     0.00 Bohr mag/cell
     absolute magnetization    =     0.00 Bohr mag/cell

     iteration # 24     ecut=    90.00 Ry     beta= 0.20
     Davidson diagonalization with overlap
     ethr =  1.38E-11,  avg # of iterations =  2.7

     total cpu time spent up to now is      723.6 secs

     total energy              =    -554.32717089 Ry
     estimated scf accuracy    <          3.9E-10 Ry

     total magnetization       =     0.00 Bohr mag/cell
     absolute magnetization    =     0.00 Bohr mag/cell

     iteration # 25     ecut=    90.00 Ry     beta= 0.20
     Davidson diagonalization with overlap
     ethr =  1.20E-12,  avg # of iterations =  3.4

     total cpu time spent up to now is      734.4 secs

     total energy              =    -554.32717089 Ry
     estimated scf accuracy    <          4.3E-09 Ry

     total magnetization       =     0.00 Bohr mag/cell
     absolute magnetization    =     0.00 Bohr mag/cell

     iteration # 26     ecut=    90.00 Ry     beta= 0.20
     Davidson diagonalization with overlap
     ethr =  1.20E-12,  avg # of iterations =  3.5

     total cpu time spent up to now is      745.7 secs

     total energy              =    -554.32717089 Ry
     estimated scf accuracy    <          2.8E-10 Ry

     total magnetization       =     0.00 Bohr mag/cell
     absolute magnetization    =     0.00 Bohr mag/cell

     iteration # 27     ecut=    90.00 Ry     beta= 0.20
     Davidson diagonalization with overlap
     ethr =  8.42E-13,  avg # of iterations =  1.0

     total cpu time spent up to now is      752.7 secs

     total energy              =    -554.32717089 Ry
     estimated scf accuracy    <          3.2E-10 Ry

     total magnetization       =    -0.00 Bohr mag/cell
     absolute magnetization    =     0.00 Bohr mag/cell

     iteration # 28     ecut=    90.00 Ry     beta= 0.20
     Davidson diagonalization with overlap
     ethr =  8.42E-13,  avg # of iterations =  1.0

     total cpu time spent up to now is      759.7 secs

     total energy              =    -554.32717089 Ry
     estimated scf accuracy    <          3.2E-10 Ry

     total magnetization       =    -0.00 Bohr mag/cell
     absolute magnetization    =     0.00 Bohr mag/cell

     iteration # 29     ecut=    90.00 Ry     beta= 0.20
     Davidson diagonalization with overlap
     ethr =  8.42E-13,  avg # of iterations =  1.0

     total cpu time spent up to now is      766.7 secs

     total energy              =    -554.32717089 Ry
     estimated scf accuracy    <          4.9E-10 Ry

     total magnetization       =    -0.00 Bohr mag/cell
     absolute magnetization    =     0.00 Bohr mag/cell

     iteration # 30     ecut=    90.00 Ry     beta= 0.20
     Davidson diagonalization with overlap
     ethr =  8.42E-13,  avg # of iterations =  1.0

     total cpu time spent up to now is      773.7 secs

     total energy              =    -554.32717089 Ry
     estimated scf accuracy    <          4.0E-10 Ry

     total magnetization       =    -0.00 Bohr mag/cell
     absolute magnetization    =     0.00 Bohr mag/cell

     iteration # 31     ecut=    90.00 Ry     beta= 0.20
     Davidson diagonalization with overlap
     ethr =  8.42E-13,  avg # of iterations =  1.0

     total cpu time spent up to now is      780.8 secs

     total energy              =    -554.32717088 Ry
     estimated scf accuracy    <          3.0E-10 Ry

     total magnetization       =    -0.00 Bohr mag/cell
     absolute magnetization    =     0.00 Bohr mag/cell

     iteration # 32     ecut=    90.00 Ry     beta= 0.20
     Davidson diagonalization with overlap
     ethr =  8.42E-13,  avg # of iterations =  2.1

     Magnetic moment per site:
     atom:    1    charge:   14.9878    magn:   -0.0000    constr:    0.0000
     atom:    2    charge:   11.5506    magn:   -0.0000    constr:    0.0000

     total cpu time spent up to now is      790.2 secs

     End of self-consistent calculation

     Number of k-points >= 100: set verbosity='high' to print the bands.

     the Fermi energy is    16.4227 ev

!    total energy              =    -554.32717089 Ry
     estimated scf accuracy    <          9.9E-11 Ry
     smearing contrib. (-TS)   =      -0.00467045 Ry
     internal energy E=F+TS    =    -554.32250043 Ry

     The total energy is F=E-TS. E is the sum of the following terms:
     one-electron contribution =    -309.47952433 Ry
     hartree contribution      =     172.62849799 Ry
     xc contribution           =     -61.99404221 Ry
     ewald contribution        =    -355.47743188 Ry

     total magnetization       =    -0.00 Bohr mag/cell
     absolute magnetization    =     0.00 Bohr mag/cell

     convergence has been achieved in  32 iterations

     Forces acting on atoms (cartesian axes, Ry/au):

     atom    1 type  1   force =     0.00000005    0.00000002    0.00000000
     atom    2 type  2   force =    -0.00000005   -0.00000002   -0.00000000

     Total force =     0.000000     Total SCF correction =     0.000000
     SCF correction compared to forces is large: reduce conv_thr to get better values


     Computing stress (Cartesian axis) and pressure

          total   stress  (Ry/bohr**3)                   (kbar)     P=       14.93
   0.00010149   0.00000001   0.00000002           14.93        0.00        0.00
   0.00000001   0.00010146  -0.00000001            0.00       14.93       -0.00
   0.00000002  -0.00000001   0.00010149            0.00       -0.00       14.93

     Energy error            =      6.4E-05
     Gradient error          =      5.4E-08
     Cell gradient error     =      1.0E-04


     number of scf cycles    =   3
     number of bfgs steps    =   2

     enthalpy old            =    -554.3271067102 Ry
     enthalpy new            =    -554.3271708858 Ry

     CASE: enthalpy_new < enthalpy_old

     new trust radius        =       0.0029726542 bohr
     new conv_thr            =            1.0E-10 Ry

     new unit-cell volume =    167.26906 a.u.^3 (    24.78672 Ang^3 )
     density =      7.61249 g/cm^3

CELL_PARAMETERS (alat=  6.81130681)
  -0.642043780  -0.000000375   0.642043888
   0.000000550   0.642043182   0.642044063
  -0.642044026   0.642043253  -0.000000621

ATOMIC_POSITIONS (alat)
Ni            0.6420446969        0.6420432902        0.6420444268
Mn            0.0000000313        0.0000000435        0.0000000347



     Writing output data file ./pwscf.save/
     NEW-OLD atomic charge density approx. for the potential

     Check: negative core charge=   -0.000049
     extrapolated charge   33.10504, renormalised to   33.00000
     Generating pointlists ...

     total cpu time spent up to now is      793.9 secs

     Self-consistent Calculation

     iteration #  1     ecut=    90.00 Ry     beta= 0.20
     Davidson diagonalization with overlap
     ethr =  1.00E-06,  avg # of iterations =  4.9

     total cpu time spent up to now is      808.8 secs

     total energy              =    -554.28820842 Ry
     estimated scf accuracy    <       0.09041964 Ry

     total magnetization       =    -0.00 Bohr mag/cell
     absolute magnetization    =     0.00 Bohr mag/cell

     iteration #  2     ecut=    90.00 Ry     beta= 0.20
     Davidson diagonalization with overlap
     ethr =  2.74E-04,  avg # of iterations =  2.7

     total cpu time spent up to now is      818.0 secs

     total energy              =    -554.30713521 Ry
     estimated scf accuracy    <       0.74543977 Ry

     total magnetization       =    -0.00 Bohr mag/cell
     absolute magnetization    =     0.00 Bohr mag/cell

     iteration #  3     ecut=    90.00 Ry     beta= 0.20
     Davidson diagonalization with overlap
     ethr =  2.74E-04,  avg # of iterations =  1.7

     total cpu time spent up to now is      825.5 secs

     total energy              =    -554.32718550 Ry
     estimated scf accuracy    <       0.04389867 Ry

     total magnetization       =    -0.00 Bohr mag/cell
     absolute magnetization    =     0.00 Bohr mag/cell

     iteration #  4     ecut=    90.00 Ry     beta= 0.20
     Davidson diagonalization with overlap
     ethr =  1.33E-04,  avg # of iterations =  1.0

     total cpu time spent up to now is      832.6 secs

     total energy              =    -554.32749947 Ry
     estimated scf accuracy    <       0.01071304 Ry

     total magnetization       =    -0.00 Bohr mag/cell
     absolute magnetization    =     0.00 Bohr mag/cell

     iteration #  5     ecut=    90.00 Ry     beta= 0.20
     Davidson diagonalization with overlap
     ethr =  3.25E-05,  avg # of iterations =  1.1

     total cpu time spent up to now is      839.7 secs

     total energy              =    -554.32738844 Ry
     estimated scf accuracy    <       0.00482274 Ry

     total magnetization       =    -0.00 Bohr mag/cell
     absolute magnetization    =     0.00 Bohr mag/cell

     iteration #  6     ecut=    90.00 Ry     beta= 0.20
     Davidson diagonalization with overlap
     ethr =  1.46E-05,  avg # of iterations =  1.0

     total cpu time spent up to now is      846.7 secs

     total energy              =    -554.32759602 Ry
     estimated scf accuracy    <       0.00259318 Ry

     total magnetization       =    -0.00 Bohr mag/cell
     absolute magnetization    =     0.00 Bohr mag/cell

     iteration #  7     ecut=    90.00 Ry     beta= 0.20
     Davidson diagonalization with overlap
     ethr =  7.86E-06,  avg # of iterations =  1.0

     total cpu time spent up to now is      853.8 secs

     total energy              =    -554.32748755 Ry
     estimated scf accuracy    <       0.00477214 Ry

     total magnetization       =    -0.00 Bohr mag/cell
     absolute magnetization    =     0.00 Bohr mag/cell

     iteration #  8     ecut=    90.00 Ry     beta= 0.20
     Davidson diagonalization with overlap
     ethr =  7.86E-06,  avg # of iterations =  1.0

     total cpu time spent up to now is      860.9 secs

     total energy              =    -554.32723070 Ry
     estimated scf accuracy    <       0.00363060 Ry

     total magnetization       =    -0.00 Bohr mag/cell
     absolute magnetization    =     0.00 Bohr mag/cell

     iteration #  9     ecut=    90.00 Ry     beta= 0.20
     Davidson diagonalization with overlap
     ethr =  7.86E-06,  avg # of iterations =  1.0

     total cpu time spent up to now is      867.9 secs

     total energy              =    -554.32717317 Ry
     estimated scf accuracy    <       0.00080911 Ry

     total magnetization       =    -0.00 Bohr mag/cell
     absolute magnetization    =     0.00 Bohr mag/cell

     iteration # 10     ecut=    90.00 Ry     beta= 0.20
     Davidson diagonalization with overlap
     ethr =  2.45E-06,  avg # of iterations =  1.3

     total cpu time spent up to now is      875.1 secs

     total energy              =    -554.32721056 Ry
     estimated scf accuracy    <       0.00004313 Ry

     total magnetization       =    -0.00 Bohr mag/cell
     absolute magnetization    =     0.00 Bohr mag/cell

     iteration # 11     ecut=    90.00 Ry     beta= 0.20
     Davidson diagonalization with overlap
     ethr =  1.31E-07,  avg # of iterations =  2.0

     total cpu time spent up to now is      883.8 secs

     total energy              =    -554.32721926 Ry
     estimated scf accuracy    <       0.00000827 Ry

     total magnetization       =    -0.00 Bohr mag/cell
     absolute magnetization    =     0.00 Bohr mag/cell

     iteration # 12     ecut=    90.00 Ry     beta= 0.20
     Davidson diagonalization with overlap
     ethr =  2.51E-08,  avg # of iterations =  1.5

     total cpu time spent up to now is      891.2 secs

     total energy              =    -554.32721947 Ry
     estimated scf accuracy    <       0.00002085 Ry

     total magnetization       =    -0.00 Bohr mag/cell
     absolute magnetization    =     0.00 Bohr mag/cell

     iteration # 13     ecut=    90.00 Ry     beta= 0.20
     Davidson diagonalization with overlap
     ethr =  2.51E-08,  avg # of iterations =  1.0

     total cpu time spent up to now is      898.2 secs

     total energy              =    -554.32721740 Ry
     estimated scf accuracy    <       0.00001989 Ry

     total magnetization       =    -0.00 Bohr mag/cell
     absolute magnetization    =     0.00 Bohr mag/cell

     iteration # 14     ecut=    90.00 Ry     beta= 0.20
     Davidson diagonalization with overlap
     ethr =  2.51E-08,  avg # of iterations =  1.0

     total cpu time spent up to now is      905.2 secs

     total energy              =    -554.32721721 Ry
     estimated scf accuracy    <       0.00000958 Ry

     total magnetization       =    -0.00 Bohr mag/cell
     absolute magnetization    =     0.00 Bohr mag/cell

     iteration # 15     ecut=    90.00 Ry     beta= 0.20
     Davidson diagonalization with overlap
     ethr =  2.51E-08,  avg # of iterations =  1.0

     total cpu time spent up to now is      912.4 secs

     total energy              =    -554.32721779 Ry
     estimated scf accuracy    <       0.00000462 Ry

     total magnetization       =    -0.00 Bohr mag/cell
     absolute magnetization    =     0.00 Bohr mag/cell

     iteration # 16     ecut=    90.00 Ry     beta= 0.20
     Davidson diagonalization with overlap
     ethr =  1.40E-08,  avg # of iterations =  1.0

     total cpu time spent up to now is      919.4 secs

     total energy              =    -554.32721867 Ry
     estimated scf accuracy    <       0.00000564 Ry

     total magnetization       =     0.00 Bohr mag/cell
     absolute magnetization    =     0.00 Bohr mag/cell

     iteration # 17     ecut=    90.00 Ry     beta= 0.20
     Davidson diagonalization with overlap
     ethr =  1.40E-08,  avg # of iterations =  1.0

     total cpu time spent up to now is      926.4 secs

     total energy              =    -554.32721564 Ry
     estimated scf accuracy    <       0.00000871 Ry

     total magnetization       =     0.00 Bohr mag/cell
     absolute magnetization    =     0.00 Bohr mag/cell

     iteration # 18     ecut=    90.00 Ry     beta= 0.20
     Davidson diagonalization with overlap
     ethr =  1.40E-08,  avg # of iterations =  2.0

     total cpu time spent up to now is      935.0 secs

     total energy              =    -554.32721635 Ry
     estimated scf accuracy    <       0.00000025 Ry

     total magnetization       =    -0.00 Bohr mag/cell
     absolute magnetization    =     0.00 Bohr mag/cell

     iteration # 19     ecut=    90.00 Ry     beta= 0.20
     Davidson diagonalization with overlap
     ethr =  7.67E-10,  avg # of iterations =  2.0

     total cpu time spent up to now is      944.9 secs

     total energy              =    -554.32721643 Ry
     estimated scf accuracy    <       0.00000010 Ry

     total magnetization       =     0.00 Bohr mag/cell
     absolute magnetization    =     0.00 Bohr mag/cell

     iteration # 20     ecut=    90.00 Ry     beta= 0.20
     Davidson diagonalization with overlap
     ethr =  2.95E-10,  avg # of iterations =  1.4

     total cpu time spent up to now is      952.3 secs

     total energy              =    -554.32721644 Ry
     estimated scf accuracy    <          5.6E-09 Ry

     total magnetization       =     0.00 Bohr mag/cell
     absolute magnetization    =     0.00 Bohr mag/cell

     iteration # 21     ecut=    90.00 Ry     beta= 0.20
     Davidson diagonalization with overlap
     ethr =  1.69E-11,  avg # of iterations =  2.3

     total cpu time spent up to now is      961.2 secs

     total energy              =    -554.32721644 Ry
     estimated scf accuracy    <          4.2E-10 Ry

     total magnetization       =     0.00 Bohr mag/cell
     absolute magnetization    =     0.00 Bohr mag/cell

     iteration # 22     ecut=    90.00 Ry     beta= 0.20
     Davidson diagonalization with overlap
     ethr =  1.28E-12,  avg # of iterations =  2.1

     total cpu time spent up to now is      969.6 secs

     total energy              =    -554.32721644 Ry
     estimated scf accuracy    <          2.4E-10 Ry

     total magnetization       =    -0.00 Bohr mag/cell
     absolute magnetization    =     0.00 Bohr mag/cell

     iteration # 23     ecut=    90.00 Ry     beta= 0.20
     Davidson diagonalization with overlap
     ethr =  7.14E-13,  avg # of iterations =  2.0

     total cpu time spent up to now is      978.3 secs

     total energy              =    -554.32721644 Ry
     estimated scf accuracy    <          1.5E-09 Ry

     total magnetization       =    -0.00 Bohr mag/cell
     absolute magnetization    =     0.00 Bohr mag/cell

     iteration # 24     ecut=    90.00 Ry     beta= 0.20
     Davidson diagonalization with overlap
     ethr =  7.14E-13,  avg # of iterations =  2.1

     total cpu time spent up to now is      987.2 secs

     total energy              =    -554.32721644 Ry
     estimated scf accuracy    <          1.2E-10 Ry

     total magnetization       =    -0.00 Bohr mag/cell
     absolute magnetization    =     0.00 Bohr mag/cell

     iteration # 25     ecut=    90.00 Ry     beta= 0.20
     Davidson diagonalization with overlap
     ethr =  3.51E-13,  avg # of iterations =  1.4

     total cpu time spent up to now is      994.5 secs

     total energy              =    -554.32721644 Ry
     estimated scf accuracy    <          1.3E-10 Ry

     total magnetization       =    -0.00 Bohr mag/cell
     absolute magnetization    =     0.00 Bohr mag/cell

     iteration # 26     ecut=    90.00 Ry     beta= 0.20
     Davidson diagonalization with overlap
     ethr =  3.51E-13,  avg # of iterations =  1.2

     total cpu time spent up to now is     1001.7 secs

     total energy              =    -554.32721644 Ry
     estimated scf accuracy    <          1.1E-10 Ry

     total magnetization       =    -0.00 Bohr mag/cell
     absolute magnetization    =     0.00 Bohr mag/cell

     iteration # 27     ecut=    90.00 Ry     beta= 0.20
     Davidson diagonalization with overlap
     ethr =  3.42E-13,  avg # of iterations =  1.0

     total cpu time spent up to now is     1008.7 secs

     total energy              =    -554.32721644 Ry
     estimated scf accuracy    <          1.5E-10 Ry

     total magnetization       =    -0.00 Bohr mag/cell
     absolute magnetization    =     0.00 Bohr mag/cell

     iteration # 28     ecut=    90.00 Ry     beta= 0.20
     Davidson diagonalization with overlap
     ethr =  3.42E-13,  avg # of iterations =  3.6

     total cpu time spent up to now is     1020.5 secs

     total energy              =    -554.32721644 Ry
     estimated scf accuracy    <          1.6E-09 Ry

     total magnetization       =    -0.00 Bohr mag/cell
     absolute magnetization    =     0.00 Bohr mag/cell

     iteration # 29     ecut=    90.00 Ry     beta= 0.20
     Davidson diagonalization with overlap
     ethr =  3.42E-13,  avg # of iterations =  3.3

     Magnetic moment per site:
     atom:    1    charge:   14.9870    magn:   -0.0000    constr:    0.0000
     atom:    2    charge:   11.5497    magn:   -0.0000    constr:    0.0000

     total cpu time spent up to now is     1031.9 secs

     End of self-consistent calculation

     Number of k-points >= 100: set verbosity='high' to print the bands.

     the Fermi energy is    16.3505 ev

!    total energy              =    -554.32721644 Ry
     estimated scf accuracy    <          8.9E-11 Ry
     smearing contrib. (-TS)   =      -0.00469536 Ry
     internal energy E=F+TS    =    -554.32252108 Ry

     The total energy is F=E-TS. E is the sum of the following terms:
     one-electron contribution =    -310.14309059 Ry
     hartree contribution      =     172.87861141 Ry
     xc contribution           =     -61.98914511 Ry
     ewald contribution        =    -355.06889679 Ry

     total magnetization       =    -0.00 Bohr mag/cell
     absolute magnetization    =     0.00 Bohr mag/cell

     convergence has been achieved in  29 iterations

     Forces acting on atoms (cartesian axes, Ry/au):

     atom    1 type  1   force =     0.00000002    0.00000003    0.00000002
     atom    2 type  2   force =    -0.00000002   -0.00000003   -0.00000002

     Total force =     0.000000     Total SCF correction =     0.000000
     SCF correction compared to forces is large: reduce conv_thr to get better values


     Computing stress (Cartesian axis) and pressure

          total   stress  (Ry/bohr**3)                   (kbar)     P=        8.47
   0.00005757  -0.00000001  -0.00000000            8.47       -0.00       -0.00
  -0.00000001   0.00005758  -0.00000000           -0.00        8.47       -0.00
[...]
     c_bands:  1 eigenvalues not converged
     c_bands:  1 eigenvalues not converged
     c_bands:  1 eigenvalues not converged
     c_bands:  1 eigenvalues not converged
     c_bands:  1 eigenvalues not converged
     c_bands:  1 eigenvalues not converged
     c_bands:  1 eigenvalues not converged
     c_bands:  1 eigenvalues not converged
     c_bands:  1 eigenvalues not converged
     c_bands:  1 eigenvalues not converged
     c_bands:  1 eigenvalues not converged
     c_bands:  1 eigenvalues not converged
     c_bands:  1 eigenvalues not converged
     c_bands:  1 eigenvalues not converged
     c_bands:  1 eigenvalues not converged
     c_bands:  1 eigenvalues not converged
     c_bands:  1 eigenvalues not converged
     c_bands:  1 eigenvalues not converged
     c_bands:  1 eigenvalues not converged
     c_bands:  1 eigenvalues not converged
     c_bands:  1 eigenvalues not converged
     c_bands:  1 eigenvalues not converged
     c_bands:  1 eigenvalues not converged
     c_bands:  1 eigenvalues not converged
     c_bands:  1 eigenvalues not converged
     c_bands:  1 eigenvalues not converged
     c_bands:  1 eigenvalues not converged
     c_bands:  1 eigenvalues not converged
     c_bands:  1 eigenvalues not converged
     c_bands:  1 eigenvalues not converged
     c_bands:  1 eigenvalues not converged
     c_bands:  1 eigenvalues not converged
     c_bands:  1 eigenvalues not converged
     c_bands:  1 eigenvalues not converged
     c_bands:  1 eigenvalues not converged
     c_bands:  1 eigenvalues not converged
     c_bands:  1 eigenvalues not converged
     c_bands:  1 eigenvalues not converged
     c_bands:  1 eigenvalues not converged
     c_bands:  1 eigenvalues not converged
     c_bands:  1 eigenvalues not converged
     c_bands:  1 eigenvalues not converged
     c_bands:  1 eigenvalues not converged
     c_bands:  1 eigenvalues not converged
     c_bands:  1 eigenvalues not converged
     c_bands:  1 eigenvalues not converged
     c_bands:  1 eigenvalues not converged
     c_bands:  1 eigenvalues not converged
     c_bands:  1 eigenvalues not converged
     c_bands:  1 eigenvalues not converged
     c_bands:  1 eigenvalues not converged
     c_bands:  1 eigenvalues not converged
     c_bands:  1 eigenvalues not converged
     c_bands:  1 eigenvalues not converged
     c_bands:  1 eigenvalues not converged
     c_bands:  1 eigenvalues not converged
     c_bands:  1 eigenvalues not converged
     c_bands:  1 eigenvalues not converged
     c_bands:  1 eigenvalues not converged
     c_bands:  1 eigenvalues not converged
     c_bands:  1 eigenvalues not converged
     c_bands:  1 eigenvalues not converged
     c_bands:  1 eigenvalues not converged
     c_bands:  1 eigenvalues not converged
     c_bands:  1 eigenvalues not converged
     c_bands:  1 eigenvalues not converged
     c_bands:  1 eigenvalues not converged
     c_bands:  1 eigenvalues not converged
     c_bands:  1 eigenvalues not converged
     ethr =  1.00E-06,  avg # of iterations = 15.8

     total cpu time spent up to now is     1580.6 secs

     total energy              =    -548.20229433 Ry
     estimated scf accuracy    <      37.48728069 Ry

     total magnetization       =     0.00 Bohr mag/cell
     absolute magnetization    =     0.00 Bohr mag/cell

     iteration #  2     ecut=    90.00 Ry     beta= 0.20
     Davidson diagonalization with overlap
     ethr =  1.00E-02,  avg # of iterations =  3.8

     total cpu time spent up to now is     1600.0 secs

     total energy              =    -553.84350651 Ry
     estimated scf accuracy    <      15.50094509 Ry

     total magnetization       =    -0.00 Bohr mag/cell
     absolute magnetization    =     0.00 Bohr mag/cell

     iteration #  3     ecut=    90.00 Ry     beta= 0.20
     Davidson diagonalization with overlap
     ethr =  1.00E-02,  avg # of iterations =  3.4

     total cpu time spent up to now is     1615.2 secs

     total energy              =    -553.39777731 Ry
     estimated scf accuracy    <       2.70871503 Ry

     total magnetization       =    -0.00 Bohr mag/cell
     absolute magnetization    =     0.00 Bohr mag/cell

     iteration #  4     ecut=    90.00 Ry     beta= 0.20
     Davidson diagonalization with overlap
     ethr =  8.21E-03,  avg # of iterations =  3.3

     total cpu time spent up to now is     1630.9 secs

     total energy              =    -552.49348652 Ry
     estimated scf accuracy    <      25.95862576 Ry

     total magnetization       =    -0.00 Bohr mag/cell
     absolute magnetization    =     0.00 Bohr mag/cell

     iteration #  5     ecut=    90.00 Ry     beta= 0.20
     Davidson diagonalization with overlap
     ethr =  8.21E-03,  avg # of iterations =  2.2

     total cpu time spent up to now is     1645.5 secs

     total energy              =    -554.22793762 Ry
     estimated scf accuracy    <       1.39032190 Ry

     total magnetization       =    -0.00 Bohr mag/cell
     absolute magnetization    =     0.00 Bohr mag/cell

     iteration #  6     ecut=    90.00 Ry     beta= 0.20
     Davidson diagonalization with overlap
     ethr =  4.21E-03,  avg # of iterations =  1.0

     total cpu time spent up to now is     1657.7 secs

     total energy              =    -554.30775756 Ry
     estimated scf accuracy    <       0.07347082 Ry

     total magnetization       =    -0.00 Bohr mag/cell
     absolute magnetization    =     0.00 Bohr mag/cell

     iteration #  7     ecut=    90.00 Ry     beta= 0.20
     Davidson diagonalization with overlap
     ethr =  2.23E-04,  avg # of iterations =  2.3

     total cpu time spent up to now is     1672.3 secs

     total energy              =    -554.29146242 Ry
     estimated scf accuracy    <       0.50974488 Ry

     total magnetization       =    -0.00 Bohr mag/cell
     absolute magnetization    =     0.00 Bohr mag/cell

     iteration #  8     ecut=    90.00 Ry     beta= 0.20
     Davidson diagonalization with overlap
     ethr =  2.23E-04,  avg # of iterations =  2.0

     total cpu time spent up to now is     1685.9 secs

     total energy              =    -554.33031806 Ry
     estimated scf accuracy    <       0.05624577 Ry

     total magnetization       =    -0.00 Bohr mag/cell
     absolute magnetization    =     0.00 Bohr mag/cell

     iteration #  9     ecut=    90.00 Ry     beta= 0.20
     Davidson diagonalization with overlap
     ethr =  1.70E-04,  avg # of iterations =  1.0

     total cpu time spent up to now is     1698.2 secs

     total energy              =    -554.32945545 Ry
     estimated scf accuracy    <       0.04909090 Ry

     total magnetization       =    -0.00 Bohr mag/cell
     absolute magnetization    =     0.00 Bohr mag/cell

     iteration # 10     ecut=    90.00 Ry     beta= 0.20
     Davidson diagonalization with overlap
     ethr =  1.49E-04,  avg # of iterations =  1.0

     total cpu time spent up to now is     1710.2 secs

     total energy              =    -554.32702964 Ry
     estimated scf accuracy    <       0.03589765 Ry

     total magnetization       =    -0.00 Bohr mag/cell
     absolute magnetization    =     0.00 Bohr mag/cell

     iteration # 11     ecut=    90.00 Ry     beta= 0.20
     Davidson diagonalization with overlap
     ethr =  1.09E-04,  avg # of iterations =  1.1

     total cpu time spent up to now is     1722.1 secs

     total energy              =    -554.32805430 Ry
     estimated scf accuracy    <       0.00055561 Ry

     total magnetization       =    -0.00 Bohr mag/cell
     absolute magnetization    =     0.00 Bohr mag/cell

     iteration # 12     ecut=    90.00 Ry     beta= 0.20
     Davidson diagonalization with overlap
     ethr =  1.68E-06,  avg # of iterations =  2.5

     total cpu time spent up to now is     1735.8 secs

     total energy              =    -554.32811899 Ry
     estimated scf accuracy    <       0.00064327 Ry

     total magnetization       =    -0.01 Bohr mag/cell
     absolute magnetization    =     0.01 Bohr mag/cell

     iteration # 13     ecut=    90.00 Ry     beta= 0.20
     Davidson diagonalization with overlap
     ethr =  1.68E-06,  avg # of iterations =  1.0

     total cpu time spent up to now is     1747.6 secs

     total energy              =    -554.32823185 Ry
     estimated scf accuracy    <       0.00005688 Ry

     total magnetization       =    -0.00 Bohr mag/cell
     absolute magnetization    =     0.01 Bohr mag/cell

     iteration # 14     ecut=    90.00 Ry     beta= 0.20
     Davidson diagonalization with overlap
     ethr =  1.72E-07,  avg # of iterations =  3.5

     total cpu time spent up to now is     1765.9 secs

     total energy              =    -554.32811350 Ry
     estimated scf accuracy    <       0.01731206 Ry

     total magnetization       =    -0.00 Bohr mag/cell
     absolute magnetization    =     0.00 Bohr mag/cell

     iteration # 15     ecut=    90.00 Ry     beta= 0.20
     Davidson diagonalization with overlap
     ethr =  1.72E-07,  avg # of iterations =  3.0

     total cpu time spent up to now is     1782.1 secs

     total energy              =    -554.32818790 Ry
     estimated scf accuracy    <       0.00414300 Ry

     total magnetization       =    -0.01 Bohr mag/cell
     absolute magnetization    =     0.01 Bohr mag/cell

     iteration # 16     ecut=    90.00 Ry     beta= 0.20
     Davidson diagonalization with overlap
     ethr =  1.72E-07,  avg # of iterations =  2.0

     total cpu time spent up to now is     1795.4 secs

     total energy              =    -554.32798750 Ry
     estimated scf accuracy    <       0.00186574 Ry

     total magnetization       =    -0.01 Bohr mag/cell
     absolute magnetization    =     0.01 Bohr mag/cell

     iteration # 17     ecut=    90.00 Ry     beta= 0.20
     Davidson diagonalization with overlap
     ethr =  1.72E-07,  avg # of iterations =  3.1

     total cpu time spent up to now is     1811.2 secs

     total energy              =    -554.32811676 Ry
     estimated scf accuracy    <       0.00034890 Ry

     total magnetization       =     0.00 Bohr mag/cell
     absolute magnetization    =     0.00 Bohr mag/cell

     iteration # 18     ecut=    90.00 Ry     beta= 0.20
     Davidson diagonalization with overlap
     ethr =  1.72E-07,  avg # of iterations =  1.1

     total cpu time spent up to now is     1823.5 secs

     total energy              =    -554.32812972 Ry
     estimated scf accuracy    <       0.00000225 Ry

     total magnetization       =    -0.00 Bohr mag/cell
     absolute magnetization    =     0.00 Bohr mag/cell

     iteration # 19     ecut=    90.00 Ry     beta= 0.20
     Davidson diagonalization with overlap
     ethr =  6.82E-09,  avg # of iterations =  2.0

     total cpu time spent up to now is     1838.2 secs

     total energy              =    -554.32812805 Ry
     estimated scf accuracy    <       0.00001851 Ry

     total magnetization       =     0.00 Bohr mag/cell
     absolute magnetization    =     0.00 Bohr mag/cell

     iteration # 20     ecut=    90.00 Ry     beta= 0.20
     Davidson diagonalization with overlap
     ethr =  6.82E-09,  avg # of iterations =  2.0

     total cpu time spent up to now is     1853.1 secs

     total energy              =    -554.32812901 Ry
     estimated scf accuracy    <       0.00000069 Ry

     total magnetization       =     0.00 Bohr mag/cell
     absolute magnetization    =     0.00 Bohr mag/cell

     iteration # 21     ecut=    90.00 Ry     beta= 0.20
     Davidson diagonalization with overlap
     ethr =  2.09E-09,  avg # of iterations =  1.2

     total cpu time spent up to now is     1865.6 secs

     total energy              =    -554.32812908 Ry
     estimated scf accuracy    <       0.00000234 Ry

     total magnetization       =     0.00 Bohr mag/cell
     absolute magnetization    =     0.00 Bohr mag/cell

     iteration # 22     ecut=    90.00 Ry     beta= 0.20
     Davidson diagonalization with overlap
     ethr =  2.09E-09,  avg # of iterations =  1.0

     total cpu time spent up to now is     1877.8 secs

     total energy              =    -554.32812914 Ry
     estimated scf accuracy    <       0.00000010 Ry

     total magnetization       =     0.00 Bohr mag/cell
     absolute magnetization    =     0.00 Bohr mag/cell

     iteration # 23     ecut=    90.00 Ry     beta= 0.20
     Davidson diagonalization with overlap
     ethr =  3.14E-10,  avg # of iterations =  1.1

     total cpu time spent up to now is     1889.9 secs

     total energy              =    -554.32812914 Ry
     estimated scf accuracy    <          1.5E-09 Ry

     total magnetization       =    -0.00 Bohr mag/cell
     absolute magnetization    =     0.00 Bohr mag/cell

     iteration # 24     ecut=    90.00 Ry     beta= 0.20
     Davidson diagonalization with overlap
     ethr =  4.67E-12,  avg # of iterations =  2.0

     total cpu time spent up to now is     1903.4 secs

     total energy              =    -554.32812914 Ry
     estimated scf accuracy    <          1.4E-10 Ry

     total magnetization       =    -0.00 Bohr mag/cell
     absolute magnetization    =     0.00 Bohr mag/cell

     iteration # 25     ecut=    90.00 Ry     beta= 0.20
     Davidson diagonalization with overlap
     ethr =  4.28E-13,  avg # of iterations =  1.8

     total cpu time spent up to now is     1916.7 secs

     total energy              =    -554.32812914 Ry
     estimated scf accuracy    <          1.2E-10 Ry

     total magnetization       =    -0.00 Bohr mag/cell
     absolute magnetization    =     0.00 Bohr mag/cell

     iteration # 26     ecut=    90.00 Ry     beta= 0.20
     Davidson diagonalization with overlap
     ethr =  3.49E-13,  avg # of iterations =  1.0

     total cpu time spent up to now is     1929.0 secs

     total energy              =    -554.32812915 Ry
     estimated scf accuracy    <          1.3E-10 Ry

     total magnetization       =    -0.00 Bohr mag/cell
     absolute magnetization    =     0.00 Bohr mag/cell

     iteration # 27     ecut=    90.00 Ry     beta= 0.20
     Davidson diagonalization with overlap
     ethr =  3.49E-13,  avg # of iterations =  1.0

     total cpu time spent up to now is     1941.4 secs

     total energy              =    -554.32812915 Ry
     estimated scf accuracy    <          1.1E-10 Ry

     total magnetization       =    -0.00 Bohr mag/cell
     absolute magnetization    =     0.00 Bohr mag/cell

     iteration # 28     ecut=    90.00 Ry     beta= 0.20
     Davidson diagonalization with overlap
     ethr =  3.48E-13,  avg # of iterations =  1.0

     Magnetic moment per site:
     atom:    1    charge:   14.9861    magn:   -0.0000    constr:    0.0000
     atom:    2    charge:   11.5488    magn:   -0.0000    constr:    0.0000

     total cpu time spent up to now is     1953.7 secs

     End of self-consistent calculation

     Number of k-points >= 100: set verbosity='high' to print the bands.

     the Fermi energy is    16.2489 ev

!    total energy              =    -554.32812915 Ry
     estimated scf accuracy    <          9.6E-11 Ry
     smearing contrib. (-TS)   =      -0.00473029 Ry
     internal energy E=F+TS    =    -554.32339886 Ry

     The total energy is F=E-TS. E is the sum of the following terms:
     one-electron contribution =    -311.07297806 Ry
     hartree contribution      =     173.22805815 Ry
     xc contribution           =     -61.98161719 Ry
     ewald contribution        =    -354.49686176 Ry

     total magnetization       =    -0.00 Bohr mag/cell
     absolute magnetization    =     0.00 Bohr mag/cell

     convergence has been achieved in  28 iterations

     Forces acting on atoms (cartesian axes, Ry/au):

     atom    1 type  1   force =    -0.00000004    0.00000002    0.00000003
     atom    2 type  2   force =     0.00000004   -0.00000002   -0.00000003

     Total force =     0.000000     Total SCF correction =     0.000000
     SCF correction compared to forces is large: reduce conv_thr to get better values


     Computing stress (Cartesian axis) and pressure

          total   stress  (Ry/bohr**3)                   (kbar)     P=        0.31
   0.00000208   0.00000000  -0.00000000            0.31        0.00       -0.00
   0.00000000   0.00000208   0.00000001            0.00        0.31        0.00
  -0.00000000   0.00000001   0.00000208           -0.00        0.00        0.31


     init_run     :     10.19s CPU     10.59s WALL (       2 calls)
     electrons    :   1849.20s CPU   1920.61s WALL (       7 calls)
     update_pot   :      1.87s CPU      1.89s WALL (       5 calls)
     forces       :      7.44s CPU      7.61s WALL (       7 calls)
     stress       :     16.60s CPU     16.72s WALL (       7 calls)

     Called by init_run:
     wfcinit      :      8.71s CPU      9.01s WALL (       2 calls)
     potinit      :      0.39s CPU      0.40s WALL (       2 calls)
     hinit0       :      0.91s CPU      0.97s WALL (       2 calls)

     Called by electrons:
     c_bands      :   1569.83s CPU   1629.34s WALL (     206 calls)
     sum_band     :    259.67s CPU    270.98s WALL (     206 calls)
     v_of_rho     :      6.99s CPU      7.33s WALL (     213 calls)
     newd         :     12.28s CPU     12.43s WALL (     213 calls)
     mix_rho      :      0.48s CPU      0.56s WALL (     206 calls)

     Called by c_bands:
     init_us_2    :     19.57s CPU     20.39s WALL (  431424 calls)
     cegterg      :   1515.52s CPU   1573.73s WALL (  207648 calls)

     Called by *egterg:
     cdiaghg      :    238.10s CPU    244.66s WALL (  602125 calls)
     h_psi        :    988.80s CPU   1031.02s WALL (  609181 calls)
     s_psi        :     48.61s CPU     50.89s WALL (  609181 calls)
     g_psi        :      3.41s CPU      3.50s WALL (  399517 calls)

     Called by h_psi:
     h_psi:calbec :     66.26s CPU     69.66s WALL (  609181 calls)
     vloc_psi     :    870.28s CPU    906.65s WALL (  609181 calls)
     add_vuspsi   :     48.97s CPU     51.48s WALL (  609181 calls)

     General routines
     calbec       :     96.41s CPU    101.34s WALL (  852109 calls)
     fft          :      2.69s CPU      3.12s WALL (    5596 calls)
     ffts         :      0.06s CPU      0.06s WALL (     838 calls)
     fftw         :    977.25s CPU   1019.22s WALL (24848246 calls)
     interpolate  :      0.24s CPU      0.26s WALL (     426 calls)

     Parallel routines
     fft_scatt_xy :    118.10s CPU    122.65s WALL (24854680 calls)
     fft_scatt_yz :    353.75s CPU    369.99s WALL (24854680 calls)

     PWSCF        :  31m26.61s CPU  32m39.72s WALL


   This run was terminated on:  19:58:16   8Dec2021            

=------------------------------------------------------------------------------=
   JOB DONE.
=------------------------------------------------------------------------------=
Note: The following floating-point exceptions are signalling: IEEE_UNDERFLOW_FLAG IEEE_DENORMAL
Note: The following floating-point exceptions are signalling: IEEE_UNDERFLOW_FLAG IEEE_DENORMAL
Note: The following floating-point exceptions are signalling: IEEE_UNDERFLOW_FLAG IEEE_DENORMAL
Note: The following floating-point exceptions are signalling: IEEE_UNDERFLOW_FLAG IEEE_DENORMAL
Note: The following floating-point exceptions are signalling: IEEE_UNDERFLOW_FLAG IEEE_DENORMAL
Note: The following floating-point exceptions are signalling: IEEE_UNDERFLOW_FLAG IEEE_DENORMAL
Note: The following floating-point exceptions are signalling: IEEE_UNDERFLOW_FLAG IEEE_DENORMAL
Note: The following floating-point exceptions are signalling: IEEE_UNDERFLOW_FLAG IEEE_DENORMAL
Note: The following floating-point exceptions are signalling: IEEE_UNDERFLOW_FLAG IEEE_DENORMAL
Note: The following floating-point exceptions are signalling: IEEE_UNDERFLOW_FLAG IEEE_DENORMAL
Note: The following floating-point exceptions are signalling: IEEE_UNDERFLOW_FLAG IEEE_DENORMAL
Note: The following floating-point exceptions are signalling: IEEE_UNDERFLOW_FLAG IEEE_DENORMAL
