
     Program PWSCF v.6.7MaX starts on  1Mar2022 at 21:47: 4 

     This program is part of the open-source Quantum ESPRESSO suite
     for quantum simulation of materials; please cite
         "P. Giannozzi et al., J. Phys.:Condens. Matter 21 395502 (2009);
         "P. Giannozzi et al., J. Phys.:Condens. Matter 29 465901 (2017);
          URL http://www.quantum-espresso.org", 
     in publications or presentations arising from this work. More details at
     http://www.quantum-espresso.org/quote

     Parallel version (MPI), running on    24 processors

     MPI processes distributed on     1 nodes
     R & G space division:  proc/nbgrp/npool/nimage =      24
     Reading input from /home/kevin/QE_CoCrFeMnNi/CoCrFeMnNi/Opt/binary/Opt-B1-CoNi/Mix/MD/300K_0.0001Gpa-B1-CoNi/300K_0.0001Gpa-B1-CoNi.in

     Current dimensions of program PWSCF are:
     Max number of different atomic species (ntypx) = 10
     Max number of k-points (npk) =  40000
     Max angular momentum in pseudopotentials (lmaxx) =  3

     File ./pwscf.update deleted, as requested

     File ./pwscf.md deleted, as requested

     Subspace diagonalization in iterative solution of the eigenvalue problem:
     a serial algorithm will be used

     Found symmetry operation: I + (  0.0000  0.5000 -0.5000)
     This is a supercell, fractional translations are disabled

     Parallelization info
     --------------------
     sticks:   dense  smooth     PW     G-vecs:    dense   smooth      PW
     Min         271      90     24                16483     3174     458
     Max         272      91     25                16488     3179     463
     Sum        6509    2177    593               395663    76237   11067



     bravais-lattice index     =            0
     lattice parameter (alat)  =       8.7065  a.u.
     unit-cell volume          =     659.9881 (a.u.)^3
     number of atoms/cell      =            8
     number of atomic types    =            2
     number of electrons       =       140.00
     number of Kohn-Sham states=           84
     kinetic-energy cutoff     =      90.0000  Ry
     charge density cutoff     =    1080.0000  Ry
     scf convergence threshold =      1.0E-10
     mixing beta               =       0.2000
     number of iterations used =            8  plain     mixing
     energy convergence thresh.=      0.0E+00
     force convergence thresh. =      0.0E+00
     press convergence thresh. =      0.0E+00
     Exchange-correlation= SLA  PW   PBE  PBE
                           (   1   4   3   4   0   0   0)
     nstep                     =          102


     celldm(1)=   8.706535  celldm(2)=   0.000000  celldm(3)=   0.000000
     celldm(4)=   0.000000  celldm(5)=   0.000000  celldm(6)=   0.000000

     crystal axes: (cart. coord. in units of alat)
               a(1) = (   1.000000   0.000000   0.000000 )  
               a(2) = (   0.000000   1.000000   0.000000 )  
               a(3) = (   0.000000   0.000000   1.000000 )  

     reciprocal axes: (cart. coord. in units 2 pi/alat)
               b(1) = (  1.000000  0.000000  0.000000 )  
               b(2) = (  0.000000  1.000000  0.000000 )  
               b(3) = (  0.000000  0.000000  1.000000 )  


     PseudoPot. # 1 for Ni read from file:
     /opt/QEpot/SSSP_efficiency_pseudos/ni_pbe_v1.4.uspp.F.UPF
     MD5 check sum: 1ee80287db30b12d2bc1f57a5b5d6409
     Pseudo is Ultrasoft + core correction, Zval = 18.0
     Generated by new atomic code, or converted to UPF format
     Using radial grid of  865 points,  6 beta functions with: 
                l(1) =   0
                l(2) =   0
                l(3) =   1
                l(4) =   1
                l(5) =   2
                l(6) =   2
     Q(r) pseudized with 10 coefficients,  rinner =    0.980   0.980   0.980
                                                       0.980   0.980

     PseudoPot. # 2 for Co read from file:
     /opt/QEpot/SSSP_efficiency_pseudos/Co_pbe_v1.2.uspp.F.UPF
     MD5 check sum: 5f91765df6ddd3222702df6e7b74a16d
     Pseudo is Ultrasoft + core correction, Zval = 17.0
     Generated by new atomic code, or converted to UPF format
     Using radial grid of  863 points,  6 beta functions with: 
                l(1) =   0
                l(2) =   0
                l(3) =   1
                l(4) =   1
                l(5) =   2
                l(6) =   2
     Q(r) pseudized with  8 coefficients,  rinner =    1.200   1.200   1.200
                                                       1.200   1.200

     atomic species   valence    mass     pseudopotential
        Ni            18.00    58.69300     Ni( 1.00)
        Co            17.00    58.93300     Co( 1.00)

      cell mass =  35.75402 AMU 

     Starting magnetic structure 
     atomic species   magnetization
        Ni           0.200
        Co           0.200

     No symmetry found



   Cartesian axes

     site n.     atom                  positions (alat units)
         1           Ni  tau(   1) = (   0.0000000   0.5000000   0.0000000  )
         2           Co  tau(   2) = (   0.5000000   0.0000000   0.5000000  )
         3           Ni  tau(   3) = (   0.0000000   0.0000000   0.5000000  )
         4           Co  tau(   4) = (   0.5000000   0.5000000   0.0000000  )
         5           Ni  tau(   5) = (   0.5000000   0.0000000   0.0000000  )
         6           Co  tau(   6) = (   0.0000000   0.5000000   0.5000000  )
         7           Ni  tau(   7) = (   0.5000000   0.5000000   0.5000000  )
         8           Co  tau(   8) = (   0.0000000   0.0000000   0.0000000  )

     number of k points=    63  Gaussian smearing, width (Ry)=  0.0100
                       cart. coord. in units 2pi/alat
        k(    1) = (   0.0000000   0.0000000   0.0000000), wk =   0.0080000
        k(    2) = (   0.0000000   0.0000000   0.2000000), wk =   0.0160000
        k(    3) = (   0.0000000   0.0000000   0.4000000), wk =   0.0160000
        k(    4) = (   0.0000000   0.2000000   0.0000000), wk =   0.0160000
        k(    5) = (   0.0000000   0.2000000   0.2000000), wk =   0.0160000
        k(    6) = (   0.0000000   0.2000000   0.4000000), wk =   0.0160000
        k(    7) = (   0.0000000   0.2000000  -0.4000000), wk =   0.0160000
        k(    8) = (   0.0000000   0.2000000  -0.2000000), wk =   0.0160000
        k(    9) = (   0.0000000   0.4000000   0.0000000), wk =   0.0160000
        k(   10) = (   0.0000000   0.4000000   0.2000000), wk =   0.0160000
        k(   11) = (   0.0000000   0.4000000   0.4000000), wk =   0.0160000
        k(   12) = (   0.0000000   0.4000000  -0.4000000), wk =   0.0160000
        k(   13) = (   0.0000000   0.4000000  -0.2000000), wk =   0.0160000
        k(   14) = (   0.2000000   0.0000000   0.0000000), wk =   0.0160000
        k(   15) = (   0.2000000   0.0000000   0.2000000), wk =   0.0160000
        k(   16) = (   0.2000000   0.0000000   0.4000000), wk =   0.0160000
        k(   17) = (   0.2000000   0.0000000  -0.4000000), wk =   0.0160000
        k(   18) = (   0.2000000   0.0000000  -0.2000000), wk =   0.0160000
        k(   19) = (   0.2000000   0.2000000   0.0000000), wk =   0.0160000
        k(   20) = (   0.2000000   0.2000000   0.2000000), wk =   0.0160000
        k(   21) = (   0.2000000   0.2000000   0.4000000), wk =   0.0160000
        k(   22) = (   0.2000000   0.2000000  -0.4000000), wk =   0.0160000
        k(   23) = (   0.2000000   0.2000000  -0.2000000), wk =   0.0160000
        k(   24) = (   0.2000000   0.4000000   0.0000000), wk =   0.0160000
        k(   25) = (   0.2000000   0.4000000   0.2000000), wk =   0.0160000
        k(   26) = (   0.2000000   0.4000000   0.4000000), wk =   0.0160000
        k(   27) = (   0.2000000   0.4000000  -0.4000000), wk =   0.0160000
        k(   28) = (   0.2000000   0.4000000  -0.2000000), wk =   0.0160000
        k(   29) = (   0.2000000  -0.4000000   0.0000000), wk =   0.0160000
        k(   30) = (   0.2000000  -0.4000000   0.2000000), wk =   0.0160000
        k(   31) = (   0.2000000  -0.4000000   0.4000000), wk =   0.0160000
        k(   32) = (   0.2000000  -0.4000000  -0.4000000), wk =   0.0160000
        k(   33) = (   0.2000000  -0.4000000  -0.2000000), wk =   0.0160000
        k(   34) = (   0.2000000  -0.2000000   0.0000000), wk =   0.0160000
        k(   35) = (   0.2000000  -0.2000000   0.2000000), wk =   0.0160000
        k(   36) = (   0.2000000  -0.2000000   0.4000000), wk =   0.0160000
        k(   37) = (   0.2000000  -0.2000000  -0.4000000), wk =   0.0160000
        k(   38) = (   0.2000000  -0.2000000  -0.2000000), wk =   0.0160000
        k(   39) = (   0.4000000   0.0000000   0.0000000), wk =   0.0160000
        k(   40) = (   0.4000000   0.0000000   0.2000000), wk =   0.0160000
        k(   41) = (   0.4000000   0.0000000   0.4000000), wk =   0.0160000
        k(   42) = (   0.4000000   0.0000000  -0.4000000), wk =   0.0160000
        k(   43) = (   0.4000000   0.0000000  -0.2000000), wk =   0.0160000
        k(   44) = (   0.4000000   0.2000000   0.0000000), wk =   0.0160000
        k(   45) = (   0.4000000   0.2000000   0.2000000), wk =   0.0160000
        k(   46) = (   0.4000000   0.2000000   0.4000000), wk =   0.0160000
        k(   47) = (   0.4000000   0.2000000  -0.4000000), wk =   0.0160000
        k(   48) = (   0.4000000   0.2000000  -0.2000000), wk =   0.0160000
        k(   49) = (   0.4000000   0.4000000   0.0000000), wk =   0.0160000
        k(   50) = (   0.4000000   0.4000000   0.2000000), wk =   0.0160000
        k(   51) = (   0.4000000   0.4000000   0.4000000), wk =   0.0160000
        k(   52) = (   0.4000000   0.4000000  -0.4000000), wk =   0.0160000
        k(   53) = (   0.4000000   0.4000000  -0.2000000), wk =   0.0160000
        k(   54) = (   0.4000000  -0.4000000   0.0000000), wk =   0.0160000
        k(   55) = (   0.4000000  -0.4000000   0.2000000), wk =   0.0160000
        k(   56) = (   0.4000000  -0.4000000   0.4000000), wk =   0.0160000
        k(   57) = (   0.4000000  -0.4000000  -0.4000000), wk =   0.0160000
        k(   58) = (   0.4000000  -0.4000000  -0.2000000), wk =   0.0160000
        k(   59) = (   0.4000000  -0.2000000   0.0000000), wk =   0.0160000
        k(   60) = (   0.4000000  -0.2000000   0.2000000), wk =   0.0160000
        k(   61) = (   0.4000000  -0.2000000   0.4000000), wk =   0.0160000
        k(   62) = (   0.4000000  -0.2000000  -0.4000000), wk =   0.0160000
        k(   63) = (   0.4000000  -0.2000000  -0.2000000), wk =   0.0160000

     Dense  grid:   395663 G-vectors     FFT dimensions: (  96,  96,  96)

     Smooth grid:    76237 G-vectors     FFT dimensions: (  54,  54,  54)

     Estimated max dynamical RAM per process >     143.04 MB

     Estimated total dynamical RAM >       3.35 GB

     Check: negative core charge=   -0.000012
     Generating pointlists ...
     new r_m :   0.2063 (alat units)  1.7957 (a.u.) for type    1
     new r_m :   0.2063 (alat units)  1.7957 (a.u.) for type    2

     Initial potential from superposition of free atoms

     starting charge  127.99997, renormalised to  140.00000
     Starting wfcs are  104 randomized atomic wfcs

     total cpu time spent up to now is       16.5 secs

     Self-consistent Calculation

     iteration #  1     ecut=    90.00 Ry     beta= 0.20
     CG style diagonalization
     ethr =  1.00E-02,  avg # of iterations =  3.7

     total cpu time spent up to now is       57.5 secs

     total energy              =   -2548.71662500 Ry
     estimated scf accuracy    <     166.00461492 Ry

     total magnetization       =    13.40 Bohr mag/cell
     absolute magnetization    =    13.47 Bohr mag/cell

     iteration #  2     ecut=    90.00 Ry     beta= 0.20
     CG style diagonalization
     ethr =  1.00E-02,  avg # of iterations =  4.6

     total cpu time spent up to now is      105.2 secs

     total energy              =   -2562.14025799 Ry
     estimated scf accuracy    <      19.61191698 Ry

     total magnetization       =    12.97 Bohr mag/cell
     absolute magnetization    =    13.59 Bohr mag/cell

     iteration #  3     ecut=    90.00 Ry     beta= 0.20
     CG style diagonalization
     ethr =  1.00E-02,  avg # of iterations =  3.5

     total cpu time spent up to now is      141.3 secs

     total energy              =   -2564.13275716 Ry
     estimated scf accuracy    <      33.81435779 Ry

     total magnetization       =    13.62 Bohr mag/cell
     absolute magnetization    =    14.40 Bohr mag/cell

     iteration #  4     ecut=    90.00 Ry     beta= 0.20
     CG style diagonalization
     ethr =  1.00E-02,  avg # of iterations =  3.1

     total cpu time spent up to now is      173.6 secs

     total energy              =   -2566.36667748 Ry
     estimated scf accuracy    <       1.61563125 Ry

     total magnetization       =    12.61 Bohr mag/cell
     absolute magnetization    =    13.42 Bohr mag/cell

     iteration #  5     ecut=    90.00 Ry     beta= 0.20
     CG style diagonalization
     ethr =  1.15E-03,  avg # of iterations =  3.1

     total cpu time spent up to now is      205.6 secs

     total energy              =   -2566.52469907 Ry
     estimated scf accuracy    <       0.34121784 Ry

     total magnetization       =    12.32 Bohr mag/cell
     absolute magnetization    =    13.08 Bohr mag/cell

     iteration #  6     ecut=    90.00 Ry     beta= 0.20
     CG style diagonalization
     ethr =  2.44E-04,  avg # of iterations =  3.1

     total cpu time spent up to now is      238.3 secs

     total energy              =   -2566.55499642 Ry
     estimated scf accuracy    <       2.32822507 Ry

     total magnetization       =    11.84 Bohr mag/cell
     absolute magnetization    =    12.64 Bohr mag/cell

     iteration #  7     ecut=    90.00 Ry     beta= 0.20
     CG style diagonalization
     ethr =  2.44E-04,  avg # of iterations =  3.0

     total cpu time spent up to now is      269.9 secs

     total energy              =   -2566.60628864 Ry
     estimated scf accuracy    <       0.31276628 Ry

     total magnetization       =    11.71 Bohr mag/cell
     absolute magnetization    =    12.41 Bohr mag/cell

     iteration #  8     ecut=    90.00 Ry     beta= 0.20
     CG style diagonalization
     ethr =  2.23E-04,  avg # of iterations =  3.0

     total cpu time spent up to now is      301.3 secs

     total energy              =   -2566.61416722 Ry
     estimated scf accuracy    <       0.20514684 Ry

     total magnetization       =    11.63 Bohr mag/cell
     absolute magnetization    =    12.32 Bohr mag/cell

     iteration #  9     ecut=    90.00 Ry     beta= 0.20
     CG style diagonalization
     ethr =  1.47E-04,  avg # of iterations =  3.0

     total cpu time spent up to now is      332.8 secs

     total energy              =   -2566.62089214 Ry
     estimated scf accuracy    <       0.06587832 Ry

     total magnetization       =    11.37 Bohr mag/cell
     absolute magnetization    =    12.09 Bohr mag/cell

     iteration # 10     ecut=    90.00 Ry     beta= 0.20
     CG style diagonalization
     ethr =  4.71E-05,  avg # of iterations =  3.0

     total cpu time spent up to now is      364.5 secs

     total energy              =   -2566.62345846 Ry
     estimated scf accuracy    <       0.01128717 Ry

     total magnetization       =    11.27 Bohr mag/cell
     absolute magnetization    =    11.99 Bohr mag/cell

     iteration # 11     ecut=    90.00 Ry     beta= 0.20
     CG style diagonalization
     c_bands:  1 eigenvalues not converged
     c_bands:  1 eigenvalues not converged
     c_bands:  1 eigenvalues not converged
     c_bands:  1 eigenvalues not converged
     c_bands:  1 eigenvalues not converged
     c_bands:  1 eigenvalues not converged
     c_bands:  1 eigenvalues not converged
     c_bands:  1 eigenvalues not converged
     c_bands:  1 eigenvalues not converged
     c_bands:  1 eigenvalues not converged
     c_bands:  1 eigenvalues not converged
     c_bands:  1 eigenvalues not converged
     c_bands:  1 eigenvalues not converged
     c_bands:  1 eigenvalues not converged
     c_bands:  1 eigenvalues not converged
     c_bands:  1 eigenvalues not converged
     c_bands:  1 eigenvalues not converged
     c_bands:  1 eigenvalues not converged
     c_bands:  1 eigenvalues not converged
     c_bands:  1 eigenvalues not converged
     ethr =  8.06E-06,  avg # of iterations =  3.2

     total cpu time spent up to now is      397.7 secs

     total energy              =   -2566.62336814 Ry
     estimated scf accuracy    <       0.02735983 Ry

     total magnetization       =    11.13 Bohr mag/cell
     absolute magnetization    =    11.84 Bohr mag/cell

     iteration # 12     ecut=    90.00 Ry     beta= 0.20
     CG style diagonalization
     c_bands:  1 eigenvalues not converged
     c_bands:  1 eigenvalues not converged
     ethr =  8.06E-06,  avg # of iterations =  3.0

     total cpu time spent up to now is      429.3 secs

     total energy              =   -2566.62330962 Ry
     estimated scf accuracy    <       0.00405586 Ry

     total magnetization       =    11.15 Bohr mag/cell
     absolute magnetization    =    11.86 Bohr mag/cell

     iteration # 13     ecut=    90.00 Ry     beta= 0.20
     CG style diagonalization
     c_bands:  1 eigenvalues not converged
     c_bands:  1 eigenvalues not converged
     c_bands:  1 eigenvalues not converged
     c_bands:  1 eigenvalues not converged
     ethr =  2.90E-06,  avg # of iterations =  3.2

     total cpu time spent up to now is      462.8 secs

     total energy              =   -2566.62348924 Ry
     estimated scf accuracy    <       0.00870243 Ry

     total magnetization       =    11.11 Bohr mag/cell
     absolute magnetization    =    11.76 Bohr mag/cell

     iteration # 14     ecut=    90.00 Ry     beta= 0.20
     CG style diagonalization
     c_bands:  1 eigenvalues not converged
     ethr =  2.90E-06,  avg # of iterations =  3.0

     total cpu time spent up to now is      494.3 secs

     total energy              =   -2566.62360910 Ry
     estimated scf accuracy    <       0.00621580 Ry

     total magnetization       =    11.13 Bohr mag/cell
     absolute magnetization    =    11.79 Bohr mag/cell

     iteration # 15     ecut=    90.00 Ry     beta= 0.20
     CG style diagonalization
     ethr =  2.90E-06,  avg # of iterations =  3.0

     total cpu time spent up to now is      525.7 secs

     total energy              =   -2566.62396216 Ry
     estimated scf accuracy    <       0.00104779 Ry

     total magnetization       =    11.02 Bohr mag/cell
     absolute magnetization    =    11.69 Bohr mag/cell

     iteration # 16     ecut=    90.00 Ry     beta= 0.20
     CG style diagonalization
     c_bands:  1 eigenvalues not converged
     ethr =  7.48E-07,  avg # of iterations =  3.0

     total cpu time spent up to now is      557.1 secs

     total energy              =   -2566.62400347 Ry
     estimated scf accuracy    <       0.00193909 Ry

     total magnetization       =    11.04 Bohr mag/cell
     absolute magnetization    =    11.70 Bohr mag/cell

     iteration # 17     ecut=    90.00 Ry     beta= 0.20
     CG style diagonalization
     ethr =  7.48E-07,  avg # of iterations =  3.0

     total cpu time spent up to now is      588.5 secs

     total energy              =   -2566.62407158 Ry
     estimated scf accuracy    <       0.00039643 Ry

     total magnetization       =    11.05 Bohr mag/cell
     absolute magnetization    =    11.70 Bohr mag/cell

     iteration # 18     ecut=    90.00 Ry     beta= 0.20
     CG style diagonalization
     ethr =  2.83E-07,  avg # of iterations =  3.0

     total cpu time spent up to now is      619.8 secs

     total energy              =   -2566.62414398 Ry
     estimated scf accuracy    <       0.00010354 Ry

     total magnetization       =    11.07 Bohr mag/cell
     absolute magnetization    =    11.71 Bohr mag/cell

     iteration # 19     ecut=    90.00 Ry     beta= 0.20
     CG style diagonalization
     ethr =  7.40E-08,  avg # of iterations =  3.0

     total cpu time spent up to now is      651.2 secs

     total energy              =   -2566.62415671 Ry
     estimated scf accuracy    <       0.00008406 Ry

     total magnetization       =    11.15 Bohr mag/cell
     absolute magnetization    =    11.77 Bohr mag/cell

     iteration # 20     ecut=    90.00 Ry     beta= 0.20
     CG style diagonalization
     ethr =  6.00E-08,  avg # of iterations =  3.0

     total cpu time spent up to now is      682.7 secs

     total energy              =   -2566.62417075 Ry
     estimated scf accuracy    <       0.00028386 Ry

     total magnetization       =    11.14 Bohr mag/cell
     absolute magnetization    =    11.76 Bohr mag/cell

     iteration # 21     ecut=    90.00 Ry     beta= 0.20
     CG style diagonalization
     ethr =  6.00E-08,  avg # of iterations =  3.0

     total cpu time spent up to now is      714.1 secs

     total energy              =   -2566.62418335 Ry
     estimated scf accuracy    <       0.00001430 Ry

     total magnetization       =    11.16 Bohr mag/cell
     absolute magnetization    =    11.78 Bohr mag/cell

     iteration # 22     ecut=    90.00 Ry     beta= 0.20
     CG style diagonalization
     ethr =  1.02E-08,  avg # of iterations =  3.0

     total cpu time spent up to now is      745.5 secs

     total energy              =   -2566.62417935 Ry
     estimated scf accuracy    <       0.00012790 Ry

     total magnetization       =    11.17 Bohr mag/cell
     absolute magnetization    =    11.78 Bohr mag/cell

     iteration # 23     ecut=    90.00 Ry     beta= 0.20
     CG style diagonalization
     ethr =  1.02E-08,  avg # of iterations =  3.0

     total cpu time spent up to now is      776.9 secs

     total energy              =   -2566.62418387 Ry
     estimated scf accuracy    <       0.00001627 Ry

     total magnetization       =    11.16 Bohr mag/cell
     absolute magnetization    =    11.77 Bohr mag/cell

     iteration # 24     ecut=    90.00 Ry     beta= 0.20
     CG style diagonalization
     ethr =  1.02E-08,  avg # of iterations =  3.0

     total cpu time spent up to now is      808.7 secs

     total energy              =   -2566.62418638 Ry
     estimated scf accuracy    <       0.00000682 Ry

     total magnetization       =    11.17 Bohr mag/cell
     absolute magnetization    =    11.78 Bohr mag/cell

     iteration # 25     ecut=    90.00 Ry     beta= 0.20
     CG style diagonalization
     ethr =  4.87E-09,  avg # of iterations =  3.0

     total cpu time spent up to now is      840.1 secs

     total energy              =   -2566.62418698 Ry
     estimated scf accuracy    <       0.00000774 Ry

     total magnetization       =    11.17 Bohr mag/cell
     absolute magnetization    =    11.78 Bohr mag/cell

     iteration # 26     ecut=    90.00 Ry     beta= 0.20
     CG style diagonalization
     ethr =  4.87E-09,  avg # of iterations =  3.0

     total cpu time spent up to now is      871.4 secs

     total energy              =   -2566.62418677 Ry
     estimated scf accuracy    <       0.00005934 Ry

     total magnetization       =    11.17 Bohr mag/cell
     absolute magnetization    =    11.78 Bohr mag/cell

     iteration # 27     ecut=    90.00 Ry     beta= 0.20
     CG style diagonalization
     ethr =  4.87E-09,  avg # of iterations =  3.0

     total cpu time spent up to now is      902.7 secs

     total energy              =   -2566.62418885 Ry
     estimated scf accuracy    <       0.00000699 Ry

     total magnetization       =    11.18 Bohr mag/cell
     absolute magnetization    =    11.78 Bohr mag/cell

     iteration # 28     ecut=    90.00 Ry     beta= 0.20
     CG style diagonalization
     ethr =  4.87E-09,  avg # of iterations =  3.0

     total cpu time spent up to now is      934.1 secs

     total energy              =   -2566.62418936 Ry
     estimated scf accuracy    <       0.00000301 Ry

     total magnetization       =    11.18 Bohr mag/cell
     absolute magnetization    =    11.78 Bohr mag/cell

     iteration # 29     ecut=    90.00 Ry     beta= 0.20
     CG style diagonalization
     ethr =  2.15E-09,  avg # of iterations =  3.0

     total cpu time spent up to now is      965.4 secs

     total energy              =   -2566.62418947 Ry
     estimated scf accuracy    <       0.00000294 Ry

     total magnetization       =    11.18 Bohr mag/cell
     absolute magnetization    =    11.79 Bohr mag/cell

     iteration # 30     ecut=    90.00 Ry     beta= 0.20
     CG style diagonalization
     ethr =  2.10E-09,  avg # of iterations =  3.0

     total cpu time spent up to now is      996.7 secs

     total energy              =   -2566.62418957 Ry
     estimated scf accuracy    <       0.00000124 Ry

     total magnetization       =    11.18 Bohr mag/cell
     absolute magnetization    =    11.78 Bohr mag/cell

     iteration # 31     ecut=    90.00 Ry     beta= 0.20
     CG style diagonalization
     ethr =  8.83E-10,  avg # of iterations =  3.0

     total cpu time spent up to now is     1028.0 secs

     total energy              =   -2566.62418963 Ry
     estimated scf accuracy    <       0.00000121 Ry

     total magnetization       =    11.18 Bohr mag/cell
     absolute magnetization    =    11.79 Bohr mag/cell

     iteration # 32     ecut=    90.00 Ry     beta= 0.20
     CG style diagonalization
     ethr =  8.66E-10,  avg # of iterations =  3.0

     total cpu time spent up to now is     1059.4 secs

     total energy              =   -2566.62418969 Ry
     estimated scf accuracy    <       0.00000009 Ry

     total magnetization       =    11.18 Bohr mag/cell
     absolute magnetization    =    11.79 Bohr mag/cell

     iteration # 33     ecut=    90.00 Ry     beta= 0.20
     CG style diagonalization
     ethr =  6.55E-11,  avg # of iterations =  3.3

     total cpu time spent up to now is     1093.9 secs

     total energy              =   -2566.62418970 Ry
     estimated scf accuracy    <       0.00000035 Ry

     total magnetization       =    11.18 Bohr mag/cell
     absolute magnetization    =    11.79 Bohr mag/cell

     iteration # 34     ecut=    90.00 Ry     beta= 0.20
     CG style diagonalization
     ethr =  6.55E-11,  avg # of iterations =  3.0

     total cpu time spent up to now is     1125.4 secs

     total energy              =   -2566.62418971 Ry
     estimated scf accuracy    <       0.00000007 Ry

     total magnetization       =    11.18 Bohr mag/cell
     absolute magnetization    =    11.78 Bohr mag/cell

     iteration # 35     ecut=    90.00 Ry     beta= 0.20
     CG style diagonalization
     ethr =  5.34E-11,  avg # of iterations =  3.0

     total cpu time spent up to now is     1156.7 secs

     total energy              =   -2566.62418971 Ry
     estimated scf accuracy    <       0.00000006 Ry

     total magnetization       =    11.18 Bohr mag/cell
     absolute magnetization    =    11.78 Bohr mag/cell

     iteration # 36     ecut=    90.00 Ry     beta= 0.20
     CG style diagonalization
     ethr =  4.11E-11,  avg # of iterations =  3.0

     total cpu time spent up to now is     1188.0 secs

     total energy              =   -2566.62418971 Ry
     estimated scf accuracy    <       0.00000002 Ry

     total magnetization       =    11.18 Bohr mag/cell
     absolute magnetization    =    11.78 Bohr mag/cell

     iteration # 37     ecut=    90.00 Ry     beta= 0.20
     CG style diagonalization
     ethr =  1.47E-11,  avg # of iterations =  3.0

     total cpu time spent up to now is     1219.3 secs

     total energy              =   -2566.62418971 Ry
     estimated scf accuracy    <       0.00000004 Ry

     total magnetization       =    11.18 Bohr mag/cell
     absolute magnetization    =    11.78 Bohr mag/cell

     iteration # 38     ecut=    90.00 Ry     beta= 0.20
     CG style diagonalization
     ethr =  1.47E-11,  avg # of iterations =  3.0

     total cpu time spent up to now is     1250.6 secs

     total energy              =   -2566.62418972 Ry
     estimated scf accuracy    <       0.00000003 Ry

     total magnetization       =    11.18 Bohr mag/cell
     absolute magnetization    =    11.78 Bohr mag/cell

     iteration # 39     ecut=    90.00 Ry     beta= 0.20
     CG style diagonalization
     ethr =  1.47E-11,  avg # of iterations =  3.0

     total cpu time spent up to now is     1281.8 secs

     total energy              =   -2566.62418972 Ry
     estimated scf accuracy    <       0.00000003 Ry

     total magnetization       =    11.18 Bohr mag/cell
     absolute magnetization    =    11.78 Bohr mag/cell

     iteration # 40     ecut=    90.00 Ry     beta= 0.20
     CG style diagonalization
     ethr =  1.47E-11,  avg # of iterations =  3.0

     total cpu time spent up to now is     1313.1 secs

     total energy              =   -2566.62418972 Ry
     estimated scf accuracy    <       0.00000002 Ry

     total magnetization       =    11.18 Bohr mag/cell
     absolute magnetization    =    11.78 Bohr mag/cell

     iteration # 41     ecut=    90.00 Ry     beta= 0.20
     CG style diagonalization
     ethr =  1.15E-11,  avg # of iterations =  3.0

     total cpu time spent up to now is     1344.4 secs

     total energy              =   -2566.62418972 Ry
     estimated scf accuracy    <       0.00000002 Ry

     total magnetization       =    11.18 Bohr mag/cell
     absolute magnetization    =    11.78 Bohr mag/cell

     iteration # 42     ecut=    90.00 Ry     beta= 0.20
     CG style diagonalization
     ethr =  1.12E-11,  avg # of iterations =  3.0

     total cpu time spent up to now is     1375.7 secs

     total energy              =   -2566.62418972 Ry
     estimated scf accuracy    <          1.1E-09 Ry

     total magnetization       =    11.18 Bohr mag/cell
     absolute magnetization    =    11.78 Bohr mag/cell

     iteration # 43     ecut=    90.00 Ry     beta= 0.20
     CG style diagonalization
     ethr =  7.77E-13,  avg # of iterations =  3.0

     total cpu time spent up to now is     1407.0 secs

     total energy              =   -2566.62418972 Ry
     estimated scf accuracy    <          8.8E-10 Ry

     total magnetization       =    11.18 Bohr mag/cell
     absolute magnetization    =    11.78 Bohr mag/cell

     iteration # 44     ecut=    90.00 Ry     beta= 0.20
     CG style diagonalization
     ethr =  6.28E-13,  avg # of iterations =  3.0

     total cpu time spent up to now is     1438.2 secs

     total energy              =   -2566.62418972 Ry
     estimated scf accuracy    <          3.7E-09 Ry

     total magnetization       =    11.18 Bohr mag/cell
     absolute magnetization    =    11.78 Bohr mag/cell

     iteration # 45     ecut=    90.00 Ry     beta= 0.20
     CG style diagonalization
     ethr =  6.28E-13,  avg # of iterations =  3.0

     total cpu time spent up to now is     1469.4 secs

     total energy              =   -2566.62418972 Ry
     estimated scf accuracy    <          1.1E-09 Ry

     total magnetization       =    11.18 Bohr mag/cell
     absolute magnetization    =    11.78 Bohr mag/cell

     iteration # 46     ecut=    90.00 Ry     beta= 0.20
     CG style diagonalization
     ethr =  6.28E-13,  avg # of iterations =  3.0

     total cpu time spent up to now is     1500.7 secs

     total energy              =   -2566.62418972 Ry
     estimated scf accuracy    <          7.9E-10 Ry

     total magnetization       =    11.18 Bohr mag/cell
     absolute magnetization    =    11.78 Bohr mag/cell

     iteration # 47     ecut=    90.00 Ry     beta= 0.20
     CG style diagonalization
     ethr =  5.67E-13,  avg # of iterations =  3.0

     total cpu time spent up to now is     1531.9 secs

     total energy              =   -2566.62418972 Ry
     estimated scf accuracy    <          1.2E-09 Ry

     total magnetization       =    11.18 Bohr mag/cell
     absolute magnetization    =    11.78 Bohr mag/cell

     iteration # 48     ecut=    90.00 Ry     beta= 0.20
     CG style diagonalization
     ethr =  5.67E-13,  avg # of iterations =  3.0

     total cpu time spent up to now is     1563.1 secs

     total energy              =   -2566.62418972 Ry
     estimated scf accuracy    <          2.0E-10 Ry

     total magnetization       =    11.18 Bohr mag/cell
     absolute magnetization    =    11.78 Bohr mag/cell

     iteration # 49     ecut=    90.00 Ry     beta= 0.20
     CG style diagonalization
     ethr =  1.42E-13,  avg # of iterations =  3.0

     total cpu time spent up to now is     1594.2 secs

     total energy              =   -2566.62418972 Ry
     estimated scf accuracy    <          2.2E-10 Ry

     total magnetization       =    11.18 Bohr mag/cell
     absolute magnetization    =    11.78 Bohr mag/cell

     iteration # 50     ecut=    90.00 Ry     beta= 0.20
     CG style diagonalization
     ethr =  1.42E-13,  avg # of iterations =  3.0

     Magnetic moment per site:
     atom:    1    charge:   16.3305    magn:    0.8879    constr:    0.0000
     atom:    2    charge:   15.1473    magn:    1.9456    constr:    0.0000
     atom:    3    charge:   16.3305    magn:    0.8879    constr:    0.0000
     atom:    4    charge:   15.1473    magn:    1.9456    constr:    0.0000
     atom:    5    charge:   16.3305    magn:    0.8879    constr:    0.0000
     atom:    6    charge:   15.1473    magn:    1.9456    constr:    0.0000
     atom:    7    charge:   16.3305    magn:    0.8879    constr:    0.0000
     atom:    8    charge:   15.1473    magn:    1.9456    constr:    0.0000

     total cpu time spent up to now is     1625.4 secs

     End of self-consistent calculation

     Number of k-points >= 100: set verbosity='high' to print the bands.

     the Fermi energy is    15.9906 ev

!    total energy              =   -2566.62418972 Ry
     estimated scf accuracy    <          4.4E-11 Ry
     smearing contrib. (-TS)   =      -0.01231303 Ry
     internal energy E=F+TS    =   -2566.61187669 Ry

     total magnetization       =    11.18 Bohr mag/cell
     absolute magnetization    =    11.78 Bohr mag/cell

     convergence has been achieved in  50 iterations

     Forces acting on atoms (cartesian axes, Ry/au):

     atom    1 type  1   force =     0.00000002   -0.00000008    0.00000005
     atom    2 type  2   force =    -0.00000004    0.00000009   -0.00000001
     atom    3 type  1   force =     0.00000005    0.00000009   -0.00000013
     atom    4 type  2   force =    -0.00000002   -0.00000004    0.00000004
     atom    5 type  1   force =    -0.00000001    0.00000005    0.00000003
     atom    6 type  2   force =     0.00000005   -0.00000006   -0.00000003
     atom    7 type  1   force =    -0.00000007   -0.00000011   -0.00000006
     atom    8 type  2   force =     0.00000002    0.00000006    0.00000012

     Total force =     0.000000     Total SCF correction =     0.000001
     SCF correction compared to forces is large: reduce conv_thr to get better values


     Computing stress (Cartesian axis) and pressure

          total   stress  (Ry/bohr**3)                   (kbar)     P=       85.47
   0.00058100  -0.00000000  -0.00000000           85.47       -0.00       -0.00
  -0.00000000   0.00058100   0.00000000           -0.00       85.47        0.00
  -0.00000000   0.00000000   0.00058100           -0.00        0.00       85.47


     Entering Dynamics;  it =     1   time =  0.00000 pico-seconds


     File pwscf.e deleted, as requested

     File pwscf.eal deleted, as requested

     File pwscf.ave deleted, as requested

     File pwscf.p deleted, as requested

     File pwscf.avec deleted, as requested

     File pwscf.tv deleted, as requested
  new lattice vectors (alat unit) :
   1.000043100  -0.000000690  -0.000000053
  -0.000000690   1.000042002   0.000000629
  -0.000000053   0.000000629   1.000043385
  new unit-cell volume =    660.0729 (a.u.)^3
  new positions in cryst coord
Ni      -0.000949863   0.500168725  -0.000426534
Co       0.500042850  -0.000044704   0.499799556
Ni       0.000206323  -0.000002217   0.500777917
Co       0.500141609   0.499723157  -0.000467578
Ni       0.500740996  -0.000511835  -0.000541703
Co      -0.000207467   0.500249196   0.500664524
Ni       0.500002544   0.500345327   0.500190319
Co       0.000023008   0.000072352   0.000003498
  new positions in cart coord (alat unit)
Ni      -0.000950249   0.500189734  -0.000426238
Co       0.500064375  -0.000044737   0.499821213
Ni       0.000206305  -0.000001902   0.500799644
Co       0.500162820   0.499743801  -0.000467310
Ni       0.500762578  -0.000512203  -0.000541753
Co      -0.000207848   0.500270522   0.500686560
Ni       0.500023722   0.500366312   0.500212308
Co       0.000023009   0.000072355   0.000003498

     Ekin =     0.01995091 Ry    T =    0.0 K  Etot =    -2566.60423432
     new unit-cell volume =    660.07286 a.u.^3 (    97.81271 Ang^3 )
     density =      7.98762 g/cm^3

CELL_PARAMETERS (angstrom)
   4.607498576  -0.000003180  -0.000000246
  -0.000003180   4.607493517   0.000002898
  -0.000000246   0.000002898   4.607499889

ATOMIC_POSITIONS (angstrom)
Ni           -0.0043780811        2.3045241595       -0.0019638051
Co            2.3039465969       -0.0002061169        2.3028262749
Ni            0.0009505082       -0.0000087634        2.3073341983
Co            2.3044001618        2.3024696137       -0.0021530385
Ni            2.3071634275       -0.0023598719       -0.0024960208
Co           -0.0009576161        2.3048963777        2.3068131898
Ni            2.3037592964        2.3053377115        2.3046281685
Co            0.0001060085        0.0003333615        0.0000161153



     Writing output data file ./pwscf.save/
     NEW-OLD atomic charge density approx. for the potential

     Check: negative core charge=   -0.000012
     extrapolated charge  140.01645, renormalised to  140.00000
     Generating pointlists ...

     total cpu time spent up to now is     1645.1 secs

     Self-consistent Calculation

     iteration #  1     ecut=    90.00 Ry     beta= 0.20
     CG style diagonalization
     c_bands:  1 eigenvalues not converged
     c_bands:  1 eigenvalues not converged
     c_bands:  1 eigenvalues not converged
     c_bands:  1 eigenvalues not converged
     c_bands:  1 eigenvalues not converged
     c_bands:  1 eigenvalues not converged
     c_bands:  1 eigenvalues not converged
     c_bands:  1 eigenvalues not converged
     c_bands:  1 eigenvalues not converged
     c_bands:  1 eigenvalues not converged
     c_bands:  1 eigenvalues not converged
     c_bands:  1 eigenvalues not converged
     c_bands:  1 eigenvalues not converged
     c_bands:  1 eigenvalues not converged
     c_bands:  1 eigenvalues not converged
     c_bands:  1 eigenvalues not converged
     c_bands:  1 eigenvalues not converged
     c_bands:  1 eigenvalues not converged
     c_bands:  1 eigenvalues not converged
     c_bands:  1 eigenvalues not converged
     c_bands:  1 eigenvalues not converged
     ethr =  1.00E-06,  avg # of iterations =  5.6

     total cpu time spent up to now is     1703.9 secs

     total energy              =   -2566.62399671 Ry
     estimated scf accuracy    <       0.00068908 Ry

     total magnetization       =    11.21 Bohr mag/cell
     absolute magnetization    =    11.81 Bohr mag/cell

     iteration #  2     ecut=    90.00 Ry     beta= 0.20
     CG style diagonalization
     ethr =  4.92E-07,  avg # of iterations =  3.5

     total cpu time spent up to now is     1739.6 secs

     total energy              =   -2566.62419111 Ry
     estimated scf accuracy    <       0.00035913 Ry

     total magnetization       =    11.17 Bohr mag/cell
     absolute magnetization    =    11.77 Bohr mag/cell

     iteration #  3     ecut=    90.00 Ry     beta= 0.20
     CG style diagonalization
     ethr =  2.57E-07,  avg # of iterations =  3.1

     total cpu time spent up to now is     1771.6 secs

     total energy              =   -2566.62420297 Ry
     estimated scf accuracy    <       0.00020304 Ry

     total magnetization       =    11.17 Bohr mag/cell
     absolute magnetization    =    11.77 Bohr mag/cell

     iteration #  4     ecut=    90.00 Ry     beta= 0.20
     CG style diagonalization
     ethr =  1.45E-07,  avg # of iterations =  3.0

     total cpu time spent up to now is     1802.3 secs

     total energy              =   -2566.62420802 Ry
     estimated scf accuracy    <       0.00015385 Ry

     total magnetization       =    11.19 Bohr mag/cell
     absolute magnetization    =    11.79 Bohr mag/cell

     iteration #  5     ecut=    90.00 Ry     beta= 0.20
     CG style diagonalization
     ethr =  1.10E-07,  avg # of iterations =  3.0

     total cpu time spent up to now is     1833.0 secs

     total energy              =   -2566.62420678 Ry
     estimated scf accuracy    <       0.00060684 Ry

     total magnetization       =    11.19 Bohr mag/cell
     absolute magnetization    =    11.79 Bohr mag/cell

     iteration #  6     ecut=    90.00 Ry     beta= 0.20
     CG style diagonalization
     ethr =  1.10E-07,  avg # of iterations =  3.0

     total cpu time spent up to now is     1863.7 secs

     total energy              =   -2566.62421949 Ry
     estimated scf accuracy    <       0.00000393 Ry

     total magnetization       =    11.19 Bohr mag/cell
     absolute magnetization    =    11.79 Bohr mag/cell

     iteration #  7     ecut=    90.00 Ry     beta= 0.20
     CG style diagonalization
     ethr =  2.81E-09,  avg # of iterations =  3.5

     total cpu time spent up to now is     1899.1 secs

     total energy              =   -2566.62422018 Ry
     estimated scf accuracy    <       0.00000487 Ry

     total magnetization       =    11.18 Bohr mag/cell
     absolute magnetization    =    11.78 Bohr mag/cell

     iteration #  8     ecut=    90.00 Ry     beta= 0.20
     CG style diagonalization
     ethr =  2.81E-09,  avg # of iterations =  3.0

     total cpu time spent up to now is     1929.8 secs

     total energy              =   -2566.62422030 Ry
     estimated scf accuracy    <       0.00000493 Ry

     total magnetization       =    11.18 Bohr mag/cell
     absolute magnetization    =    11.78 Bohr mag/cell

     iteration #  9     ecut=    90.00 Ry     beta= 0.20
     CG style diagonalization
     ethr =  2.81E-09,  avg # of iterations =  3.0

     total cpu time spent up to now is     1960.6 secs

     total energy              =   -2566.62422039 Ry
     estimated scf accuracy    <       0.00000128 Ry

     total magnetization       =    11.18 Bohr mag/cell
     absolute magnetization    =    11.78 Bohr mag/cell

     iteration # 10     ecut=    90.00 Ry     beta= 0.20
     CG style diagonalization
     ethr =  9.13E-10,  avg # of iterations =  3.0

     total cpu time spent up to now is     1991.3 secs

     total energy              =   -2566.62422041 Ry
     estimated scf accuracy    <       0.00000022 Ry

     total magnetization       =    11.18 Bohr mag/cell
     absolute magnetization    =    11.79 Bohr mag/cell

     iteration # 11     ecut=    90.00 Ry     beta= 0.20
     CG style diagonalization
     ethr =  1.60E-10,  avg # of iterations =  3.5

     total cpu time spent up to now is     2026.8 secs

     total energy              =   -2566.62422045 Ry
     estimated scf accuracy    <       0.00000011 Ry

     total magnetization       =    11.18 Bohr mag/cell
     absolute magnetization    =    11.79 Bohr mag/cell

     iteration # 12     ecut=    90.00 Ry     beta= 0.20
     CG style diagonalization
     ethr =  7.76E-11,  avg # of iterations =  3.4

     total cpu time spent up to now is     2061.9 secs

     total energy              =   -2566.62422046 Ry
     estimated scf accuracy    <       0.00000013 Ry

     total magnetization       =    11.18 Bohr mag/cell
     absolute magnetization    =    11.79 Bohr mag/cell

     iteration # 13     ecut=    90.00 Ry     beta= 0.20
     CG style diagonalization
     ethr =  7.76E-11,  avg # of iterations =  3.0

     total cpu time spent up to now is     2092.7 secs

     total energy              =   -2566.62422047 Ry
     estimated scf accuracy    <       0.00000004 Ry

     total magnetization       =    11.18 Bohr mag/cell
     absolute magnetization    =    11.79 Bohr mag/cell

     iteration # 14     ecut=    90.00 Ry     beta= 0.20
     CG style diagonalization
     ethr =  2.60E-11,  avg # of iterations =  3.0

     total cpu time spent up to now is     2123.4 secs

     total energy              =   -2566.62422047 Ry
     estimated scf accuracy    <       0.00000004 Ry

     total magnetization       =    11.18 Bohr mag/cell
     absolute magnetization    =    11.79 Bohr mag/cell

     iteration # 15     ecut=    90.00 Ry     beta= 0.20
     CG style diagonalization
     ethr =  2.60E-11,  avg # of iterations =  3.0

     total cpu time spent up to now is     2154.1 secs

     total energy              =   -2566.62422047 Ry
     estimated scf accuracy    <       0.00000002 Ry

     total magnetization       =    11.18 Bohr mag/cell
     absolute magnetization    =    11.79 Bohr mag/cell

     iteration # 16     ecut=    90.00 Ry     beta= 0.20
     CG style diagonalization
     ethr =  1.29E-11,  avg # of iterations =  3.0

     total cpu time spent up to now is     2184.9 secs

     total energy              =   -2566.62422047 Ry
     estimated scf accuracy    <          5.9E-09 Ry

     total magnetization       =    11.18 Bohr mag/cell
     absolute magnetization    =    11.79 Bohr mag/cell

     iteration # 17     ecut=    90.00 Ry     beta= 0.20
     CG style diagonalization
     ethr =  4.18E-12,  avg # of iterations =  3.0

     total cpu time spent up to now is     2215.6 secs

     total energy              =   -2566.62422047 Ry
     estimated scf accuracy    <          2.3E-09 Ry

     total magnetization       =    11.18 Bohr mag/cell
     absolute magnetization    =    11.79 Bohr mag/cell

     iteration # 18     ecut=    90.00 Ry     beta= 0.20
     CG style diagonalization
     ethr =  1.63E-12,  avg # of iterations =  3.0

     total cpu time spent up to now is     2246.4 secs

     total energy              =   -2566.62422047 Ry
     estimated scf accuracy    <          8.0E-09 Ry

     total magnetization       =    11.18 Bohr mag/cell
     absolute magnetization    =    11.79 Bohr mag/cell

     iteration # 19     ecut=    90.00 Ry     beta= 0.20
     CG style diagonalization
     ethr =  1.63E-12,  avg # of iterations =  3.0

     total cpu time spent up to now is     2277.1 secs

     total energy              =   -2566.62422047 Ry
     estimated scf accuracy    <          4.7E-10 Ry

     total magnetization       =    11.18 Bohr mag/cell
     absolute magnetization    =    11.79 Bohr mag/cell

     iteration # 20     ecut=    90.00 Ry     beta= 0.20
     CG style diagonalization
     ethr =  3.39E-13,  avg # of iterations =  3.0

     total cpu time spent up to now is     2308.2 secs

     total energy              =   -2566.62422047 Ry
     estimated scf accuracy    <          3.3E-10 Ry

     total magnetization       =    11.18 Bohr mag/cell
     absolute magnetization    =    11.79 Bohr mag/cell

     iteration # 21     ecut=    90.00 Ry     beta= 0.20
     CG style diagonalization
     ethr =  2.36E-13,  avg # of iterations =  3.0

     total cpu time spent up to now is     2339.0 secs

     total energy              =   -2566.62422047 Ry
     estimated scf accuracy    <          1.6E-10 Ry

     total magnetization       =    11.18 Bohr mag/cell
     absolute magnetization    =    11.79 Bohr mag/cell

     iteration # 22     ecut=    90.00 Ry     beta= 0.20
     CG style diagonalization
     ethr =  1.14E-13,  avg # of iterations =  3.0

     total cpu time spent up to now is     2370.0 secs

     total energy              =   -2566.62422047 Ry
     estimated scf accuracy    <          1.7E-10 Ry

     total magnetization       =    11.18 Bohr mag/cell
     absolute magnetization    =    11.79 Bohr mag/cell

     iteration # 23     ecut=    90.00 Ry     beta= 0.20
     CG style diagonalization
     ethr =  1.14E-13,  avg # of iterations =  3.0

     total cpu time spent up to now is     2400.7 secs

     total energy              =   -2566.62422047 Ry
     estimated scf accuracy    <          2.6E-10 Ry

     total magnetization       =    11.18 Bohr mag/cell
     absolute magnetization    =    11.79 Bohr mag/cell

     iteration # 24     ecut=    90.00 Ry     beta= 0.20
     CG style diagonalization
     ethr =  1.14E-13,  avg # of iterations =  3.0

     Magnetic moment per site:
     atom:    1    charge:   16.3304    magn:    0.8879    constr:    0.0000
     atom:    2    charge:   15.1472    magn:    1.9458    constr:    0.0000
     atom:    3    charge:   16.3304    magn:    0.8879    constr:    0.0000
     atom:    4    charge:   15.1472    magn:    1.9457    constr:    0.0000
     atom:    5    charge:   16.3304    magn:    0.8879    constr:    0.0000
     atom:    6    charge:   15.1472    magn:    1.9457    constr:    0.0000
     atom:    7    charge:   16.3304    magn:    0.8879    constr:    0.0000
     atom:    8    charge:   15.1472    magn:    1.9457    constr:    0.0000

     total cpu time spent up to now is     2431.7 secs

     End of self-consistent calculation

     Number of k-points >= 100: set verbosity='high' to print the bands.

     the Fermi energy is    15.9880 ev

!    total energy              =   -2566.62422047 Ry
     estimated scf accuracy    <          1.6E-11 Ry
     smearing contrib. (-TS)   =      -0.01231183 Ry
     internal energy E=F+TS    =   -2566.61190864 Ry

     total magnetization       =    11.18 Bohr mag/cell
     absolute magnetization    =    11.79 Bohr mag/cell

     convergence has been achieved in  24 iterations

     Forces acting on atoms (cartesian axes, Ry/au):

     atom    1 type  1   force =     0.00093265   -0.00003422    0.00126986
     atom    2 type  2   force =     0.00000185    0.00059817   -0.00082803
     atom    3 type  1   force =    -0.00003563    0.00030326   -0.00071469
     atom    4 type  2   force =    -0.00146590   -0.00060012    0.00081743
     atom    5 type  1   force =    -0.00057905    0.00003711    0.00030184
     atom    6 type  2   force =     0.00035481   -0.00030853   -0.00122759
     atom    7 type  1   force =    -0.00031784   -0.00030613   -0.00085689
     atom    8 type  2   force =     0.00110910    0.00031047    0.00123808

     Total force =     0.003640     Total SCF correction =     0.000019


     Computing stress (Cartesian axis) and pressure

          total   stress  (Ry/bohr**3)                   (kbar)     P=       85.27
   0.00057964   0.00000000   0.00000001           85.27        0.00        0.00
   0.00000000   0.00057960  -0.00000000            0.00       85.26       -0.00
   0.00000001  -0.00000000   0.00057963            0.00       -0.00       85.27


     Entering Dynamics;  it =     2   time =  0.00097 pico-seconds

  new lattice vectors (alat unit) :
   1.000150709  -0.000002415  -0.000000185
  -0.000002415   1.000146863   0.000002201
  -0.000000185   0.000002201   1.000151704
  new unit-cell volume =    660.2846 (a.u.)^3
  new positions in cryst coord
Ni      -0.001898781   0.500337394  -0.000851913
Co       0.500085695  -0.000088890   0.499598434
Ni       0.000412584  -0.000004174   0.501555103
Co       0.500281942   0.499445842  -0.000934385
Ni       0.501481381  -0.001023561  -0.001083063
Co      -0.000414598   0.500498089   0.501327897
Ni       0.500004816   0.500690340   0.500379873
Co       0.000046961   0.000144959   0.000008053
  new positions in cart coord (alat unit)
Ni      -0.001900275   0.500410878  -0.000850941
Co       0.500160970  -0.000089011   0.499674132
Ni       0.000412553  -0.000003072   0.501631191
Co       0.500356133   0.499517982  -0.000933520
Ni       0.501556962  -0.001024924  -0.001083323
Co      -0.000415962   0.500572698   0.501405053
Ni       0.500078869   0.500763767   0.500456793
Co       0.000046968   0.000144980   0.000008055

     Ekin =     0.01999080 Ry    T =  233.8 K  Etot =    -2566.60422519
     new unit-cell volume =    660.28462 a.u.^3 (    97.84409 Ang^3 )
     density =      7.98505 g/cm^3

CELL_PARAMETERS (angstrom)
   4.607994364  -0.000011126  -0.000000854
  -0.000011126   4.607976644   0.000010141
  -0.000000854   0.000010141   4.607998947

ATOMIC_POSITIONS (angstrom)
Ni           -0.0087551376        2.3055430394       -0.0039205396
Co            2.3043916380       -0.0004101014        2.3021486298
Ni            0.0019007549       -0.0000141529        2.3111653858
Co            2.3052908123        2.3014292007       -0.0043010059
Ni            2.3108233918       -0.0047221341       -0.0049911932
Co           -0.0019164617        2.3062885920        2.3101234986
Ni            2.3040133748        2.3071689057        2.3057545802
Co            0.0002163943        0.0006679674        0.0000371111



     Writing output data file ./pwscf.save/
     NEW-OLD atomic charge density approx. for the potential

     Check: negative core charge=   -0.000012
     extrapolated charge  140.04105, renormalised to  140.00000
     Generating pointlists ...

     total cpu time spent up to now is     2451.3 secs

     Self-consistent Calculation

     iteration #  1     ecut=    90.00 Ry     beta= 0.20
     CG style diagonalization
     c_bands:  1 eigenvalues not converged
     c_bands:  1 eigenvalues not converged
     c_bands:  1 eigenvalues not converged
     c_bands:  1 eigenvalues not converged
     c_bands:  1 eigenvalues not converged
     c_bands:  1 eigenvalues not converged
     c_bands:  1 eigenvalues not converged
     c_bands:  1 eigenvalues not converged
     c_bands:  1 eigenvalues not converged
     c_bands:  1 eigenvalues not converged
     c_bands:  1 eigenvalues not converged
     c_bands:  1 eigenvalues not converged
     c_bands:  2 eigenvalues not converged
     c_bands:  1 eigenvalues not converged
     c_bands:  1 eigenvalues not converged
     c_bands:  1 eigenvalues not converged
     c_bands:  2 eigenvalues not converged
     c_bands:  1 eigenvalues not converged
     c_bands:  1 eigenvalues not converged
     c_bands:  1 eigenvalues not converged
     c_bands:  1 eigenvalues not converged
     c_bands:  1 eigenvalues not converged
     c_bands:  1 eigenvalues not converged
     c_bands:  1 eigenvalues not converged
     c_bands:  1 eigenvalues not converged
     c_bands:  1 eigenvalues not converged
     c_bands:  1 eigenvalues not converged
     c_bands:  1 eigenvalues not converged
     c_bands:  1 eigenvalues not converged
     c_bands:  1 eigenvalues not converged
     c_bands:  2 eigenvalues not converged
     c_bands:  1 eigenvalues not converged
     c_bands:  1 eigenvalues not converged
     c_bands:  1 eigenvalues not converged
     ethr =  1.00E-06,  avg # of iterations =  5.9

     total cpu time spent up to now is     2512.4 secs

     total energy              =   -2566.62339682 Ry
     estimated scf accuracy    <       0.00202024 Ry

     total magnetization       =    11.26 Bohr mag/cell
     absolute magnetization    =    11.84 Bohr mag/cell

     iteration #  2     ecut=    90.00 Ry     beta= 0.20
     CG style diagonalization
     ethr =  1.44E-06,  avg # of iterations =  3.6

     total cpu time spent up to now is     2548.9 secs

     total energy              =   -2566.62420641 Ry
     estimated scf accuracy    <       0.00187634 Ry

     total magnetization       =    11.15 Bohr mag/cell
     absolute magnetization    =    11.76 Bohr mag/cell

     iteration #  3     ecut=    90.00 Ry     beta= 0.20
     CG style diagonalization
     ethr =  1.34E-06,  avg # of iterations =  3.0

     total cpu time spent up to now is     2579.6 secs

     total energy              =   -2566.62427973 Ry
     estimated scf accuracy    <       0.00084449 Ry

     total magnetization       =    11.15 Bohr mag/cell
     absolute magnetization    =    11.76 Bohr mag/cell

     iteration #  4     ecut=    90.00 Ry     beta= 0.20
     CG style diagonalization
     ethr =  6.03E-07,  avg # of iterations =  3.0

     total cpu time spent up to now is     2610.3 secs

     total energy              =   -2566.62427218 Ry
     estimated scf accuracy    <       0.00030518 Ry

     total magnetization       =    11.17 Bohr mag/cell
     absolute magnetization    =    11.78 Bohr mag/cell

     iteration #  5     ecut=    90.00 Ry     beta= 0.20
     CG style diagonalization
     ethr =  2.18E-07,  avg # of iterations =  3.0

     total cpu time spent up to now is     2641.2 secs

     total energy              =   -2566.62424119 Ry
     estimated scf accuracy    <       0.00169629 Ry

     total magnetization       =    11.18 Bohr mag/cell
     absolute magnetization    =    11.79 Bohr mag/cell

     iteration #  6     ecut=    90.00 Ry     beta= 0.20
     CG style diagonalization
     ethr =  2.18E-07,  avg # of iterations =  3.0

     total cpu time spent up to now is     2672.1 secs

     total energy              =   -2566.62428732 Ry
     estimated scf accuracy    <       0.00001926 Ry

     total magnetization       =    11.19 Bohr mag/cell
     absolute magnetization    =    11.79 Bohr mag/cell

     iteration #  7     ecut=    90.00 Ry     beta= 0.20
     CG style diagonalization
     ethr =  1.38E-08,  avg # of iterations =  3.4

     total cpu time spent up to now is     2706.5 secs

     total energy              =   -2566.62428878 Ry
     estimated scf accuracy    <       0.00003360 Ry

     total magnetization       =    11.19 Bohr mag/cell
     absolute magnetization    =    11.79 Bohr mag/cell

     iteration #  8     ecut=    90.00 Ry     beta= 0.20
     CG style diagonalization
     ethr =  1.38E-08,  avg # of iterations =  3.0

     total cpu time spent up to now is     2737.2 secs

     total energy              =   -2566.62429073 Ry
     estimated scf accuracy    <       0.00000431 Ry

     total magnetization       =    11.18 Bohr mag/cell
     absolute magnetization    =    11.79 Bohr mag/cell

     iteration #  9     ecut=    90.00 Ry     beta= 0.20
     CG style diagonalization
     ethr =  3.08E-09,  avg # of iterations =  3.0

     total cpu time spent up to now is     2768.4 secs

     total energy              =   -2566.62429061 Ry
     estimated scf accuracy    <       0.00000711 Ry

     total magnetization       =    11.18 Bohr mag/cell
     absolute magnetization    =    11.79 Bohr mag/cell

     iteration # 10     ecut=    90.00 Ry     beta= 0.20
     CG style diagonalization
     ethr =  3.08E-09,  avg # of iterations =  3.0

     total cpu time spent up to now is     2799.1 secs

     total energy              =   -2566.62428975 Ry
     estimated scf accuracy    <       0.00000347 Ry

     total magnetization       =    11.18 Bohr mag/cell
     absolute magnetization    =    11.79 Bohr mag/cell

     iteration # 11     ecut=    90.00 Ry     beta= 0.20
     CG style diagonalization
     ethr =  2.48E-09,  avg # of iterations =  3.3

     total cpu time spent up to now is     2832.9 secs

     total energy              =   -2566.62429024 Ry
     estimated scf accuracy    <       0.00000007 Ry

     total magnetization       =    11.19 Bohr mag/cell
     absolute magnetization    =    11.79 Bohr mag/cell

     iteration # 12     ecut=    90.00 Ry     beta= 0.20
     CG style diagonalization
     ethr =  5.22E-11,  avg # of iterations =  3.5

     total cpu time spent up to now is     2869.1 secs

     total energy              =   -2566.62429025 Ry
     estimated scf accuracy    <       0.00000047 Ry

     total magnetization       =    11.19 Bohr mag/cell
     absolute magnetization    =    11.79 Bohr mag/cell

     iteration # 13     ecut=    90.00 Ry     beta= 0.20
     CG style diagonalization
     ethr =  5.22E-11,  avg # of iterations =  3.0

     total cpu time spent up to now is     2899.9 secs

     total energy              =   -2566.62429026 Ry
     estimated scf accuracy    <       0.00000003 Ry

     total magnetization       =    11.19 Bohr mag/cell
     absolute magnetization    =    11.79 Bohr mag/cell

     iteration # 14     ecut=    90.00 Ry     beta= 0.20
     CG style diagonalization
     ethr =  2.20E-11,  avg # of iterations =  3.0

     total cpu time spent up to now is     2930.7 secs

     total energy              =   -2566.62429027 Ry
     estimated scf accuracy    <       0.00000007 Ry

     total magnetization       =    11.19 Bohr mag/cell
     absolute magnetization    =    11.79 Bohr mag/cell

     iteration # 15     ecut=    90.00 Ry     beta= 0.20
     CG style diagonalization
     ethr =  2.20E-11,  avg # of iterations =  3.0

     total cpu time spent up to now is     2961.4 secs

     total energy              =   -2566.62429027 Ry
     estimated scf accuracy    <          4.8E-09 Ry

     total magnetization       =    11.19 Bohr mag/cell
     absolute magnetization    =    11.79 Bohr mag/cell

     iteration # 16     ecut=    90.00 Ry     beta= 0.20
     CG style diagonalization
     ethr =  3.45E-12,  avg # of iterations =  3.0

     total cpu time spent up to now is     2992.4 secs

     total energy              =   -2566.62429027 Ry
     estimated scf accuracy    <       0.00000001 Ry

     total magnetization       =    11.19 Bohr mag/cell
     absolute magnetization    =    11.79 Bohr mag/cell

     iteration # 17     ecut=    90.00 Ry     beta= 0.20
     CG style diagonalization
     ethr =  3.45E-12,  avg # of iterations =  3.0

     total cpu time spent up to now is     3023.1 secs

     total energy              =   -2566.62429027 Ry
     estimated scf accuracy    <          7.2E-09 Ry

     total magnetization       =    11.19 Bohr mag/cell
     absolute magnetization    =    11.79 Bohr mag/cell

     iteration # 18     ecut=    90.00 Ry     beta= 0.20
     CG style diagonalization
     ethr =  3.45E-12,  avg # of iterations =  3.0

     total cpu time spent up to now is     3053.9 secs

     total energy              =   -2566.62429027 Ry
     estimated scf accuracy    <       0.00000002 Ry

     total magnetization       =    11.19 Bohr mag/cell
     absolute magnetization    =    11.79 Bohr mag/cell

     iteration # 19     ecut=    90.00 Ry     beta= 0.20
     CG style diagonalization
     ethr =  3.45E-12,  avg # of iterations =  3.0

     total cpu time spent up to now is     3084.6 secs

     total energy              =   -2566.62429027 Ry
     estimated scf accuracy    <          1.1E-09 Ry

     total magnetization       =    11.19 Bohr mag/cell
     absolute magnetization    =    11.79 Bohr mag/cell

     iteration # 20     ecut=    90.00 Ry     beta= 0.20
     CG style diagonalization
     ethr =  7.82E-13,  avg # of iterations =  3.0

     total cpu time spent up to now is     3115.4 secs

     total energy              =   -2566.62429027 Ry
     estimated scf accuracy    <          4.2E-10 Ry

     total magnetization       =    11.19 Bohr mag/cell
     absolute magnetization    =    11.79 Bohr mag/cell

     iteration # 21     ecut=    90.00 Ry     beta= 0.20
     CG style diagonalization
     ethr =  2.99E-13,  avg # of iterations =  3.0

     total cpu time spent up to now is     3146.3 secs

     total energy              =   -2566.62429027 Ry
     estimated scf accuracy    <          1.1E-09 Ry

     total magnetization       =    11.19 Bohr mag/cell
     absolute magnetization    =    11.79 Bohr mag/cell

     iteration # 22     ecut=    90.00 Ry     beta= 0.20
     CG style diagonalization
     ethr =  2.99E-13,  avg # of iterations =  3.0

     total cpu time spent up to now is     3177.0 secs

     total energy              =   -2566.62429027 Ry
     estimated scf accuracy    <          1.0E-10 Ry

     total magnetization       =    11.19 Bohr mag/cell
     absolute magnetization    =    11.79 Bohr mag/cell

     iteration # 23     ecut=    90.00 Ry     beta= 0.20
     CG style diagonalization
     ethr =  1.00E-13,  avg # of iterations =  3.1

     total cpu time spent up to now is     3208.4 secs

     total energy              =   -2566.62429027 Ry
     estimated scf accuracy    <          4.9E-10 Ry

     total magnetization       =    11.19 Bohr mag/cell
     absolute magnetization    =    11.79 Bohr mag/cell

     iteration # 24     ecut=    90.00 Ry     beta= 0.20
     CG style diagonalization
     ethr =  1.00E-13,  avg # of iterations =  3.0

     Magnetic moment per site:
     atom:    1    charge:   16.3302    magn:    0.8881    constr:    0.0000
     atom:    2    charge:   15.1469    magn:    1.9462    constr:    0.0000
     atom:    3    charge:   16.3302    magn:    0.8881    constr:    0.0000
     atom:    4    charge:   15.1470    magn:    1.9461    constr:    0.0000
     atom:    5    charge:   16.3302    magn:    0.8881    constr:    0.0000
     atom:    6    charge:   15.1470    magn:    1.9461    constr:    0.0000
     atom:    7    charge:   16.3302    magn:    0.8881    constr:    0.0000
     atom:    8    charge:   15.1469    magn:    1.9461    constr:    0.0000

     total cpu time spent up to now is     3239.1 secs

     End of self-consistent calculation

     Number of k-points >= 100: set verbosity='high' to print the bands.

     the Fermi energy is    15.9814 ev

!    total energy              =   -2566.62429027 Ry
     estimated scf accuracy    <          3.1E-11 Ry
     smearing contrib. (-TS)   =      -0.01230870 Ry
     internal energy E=F+TS    =   -2566.61198157 Ry

     total magnetization       =    11.19 Bohr mag/cell
     absolute magnetization    =    11.79 Bohr mag/cell

     convergence has been achieved in  24 iterations

     Forces acting on atoms (cartesian axes, Ry/au):

     atom    1 type  1   force =     0.00186711   -0.00006905    0.00253676
     atom    2 type  2   force =     0.00000469    0.00119380   -0.00165216
     atom    3 type  1   force =    -0.00007318    0.00060498   -0.00142970
     atom    4 type  2   force =    -0.00292678   -0.00119854    0.00163012
     atom    5 type  1   force =    -0.00115918    0.00007673    0.00060422
     atom    6 type  2   force =     0.00070714   -0.00061511   -0.00244916
     atom    7 type  1   force =    -0.00063358   -0.00061249   -0.00171067
     atom    8 type  2   force =     0.00221378    0.00061968    0.00247059

     Total force =     0.007269     Total SCF correction =     0.000021


     Computing stress (Cartesian axis) and pressure

          total   stress  (Ry/bohr**3)                   (kbar)     P=       84.75
   0.00057623  -0.00000000   0.00000003           84.77       -0.00        0.00
  -0.00000000   0.00057603  -0.00000001           -0.00       84.74       -0.00
   0.00000003  -0.00000001   0.00057616            0.00       -0.00       84.76


     Entering Dynamics;  it =     3   time =  0.00194 pico-seconds

  new lattice vectors (alat unit) :
   1.000322468  -0.000005172  -0.000000394
  -0.000005172   1.000314214   0.000004713
  -0.000000394   0.000004713   1.000324588
  new unit-cell volume =    660.6227 (a.u.)^3
  new positions in cryst coord
Ni      -0.002845830   0.500505956  -0.001274996
Co       0.500128532  -0.000132042   0.499395956
Ni       0.000618725  -0.000005614   0.502330843
Co       0.500419732   0.499167581  -0.001399665
Ni       0.502220562  -0.001535075  -0.001623750
Co      -0.000621065   0.500746385   0.501988988
Ni       0.500006544   0.501034733   0.500567904
Co       0.000072801   0.000218076   0.000014720
  new positions in cart coord (alat unit)
Ni      -0.002849336   0.500663231  -0.001273049
Co       0.500289611  -0.000132316   0.499557857
Ni       0.000618726  -0.000003251   0.502493893
Co       0.500578520   0.499321832  -0.001397964
Ni       0.502382521  -0.001538163  -0.001624482
Co      -0.000624053   0.500906096   0.502154288
Ni       0.500164992   0.501191939   0.500732547
Co       0.000072823   0.000218144   0.000014726

     Ekin =     0.02005997 Ry    T =  234.2 K  Etot =    -2566.60422581
     new unit-cell volume =    660.62269 a.u.^3 (    97.89418 Ang^3 )
     density =      7.98097 g/cm^3

CELL_PARAMETERS (angstrom)
   4.608785707  -0.000023827  -0.000001815
  -0.000023827   4.608747680   0.000021716
  -0.000001815   0.000021716   4.608795474

ATOMIC_POSITIONS (angstrom)
Ni           -0.0131277453        2.3067057038       -0.0058653208
Co            2.3049843253       -0.0006096204        2.3016129123
Ni            0.0028506572       -0.0000149786        2.3151401123
Co            2.3063154151        2.3005254774       -0.0064408391
Ni            2.3146269896       -0.0070867763       -0.0074844775
Co           -0.0028751993        2.3078246547        2.3135754530
Ni            2.3044101684        2.3091416205        2.3070250632
Co            0.0003355176        0.0010050569        0.0000678463



     Writing output data file ./pwscf.save/
     NEW-OLD atomic charge density approx. for the potential

     Check: negative core charge=   -0.000012
     extrapolated charge  140.06550, renormalised to  140.00000
     Generating pointlists ...

     total cpu time spent up to now is     3258.7 secs

     Self-consistent Calculation

     iteration #  1     ecut=    90.00 Ry     beta= 0.20
     CG style diagonalization
     c_bands:  2 eigenvalues not converged
     c_bands:  1 eigenvalues not converged
     c_bands:  1 eigenvalues not converged
     c_bands:  1 eigenvalues not converged
     c_bands:  2 eigenvalues not converged
     c_bands:  1 eigenvalues not converged
     c_bands:  1 eigenvalues not converged
     c_bands:  1 eigenvalues not converged
     c_bands:  1 eigenvalues not converged
     c_bands:  1 eigenvalues not converged
     c_bands:  1 eigenvalues not converged
     c_bands:  1 eigenvalues not converged
     c_bands:  1 eigenvalues not converged
     c_bands:  1 eigenvalues not converged
     c_bands:  1 eigenvalues not converged
     c_bands:  1 eigenvalues not converged
     c_bands:  2 eigenvalues not converged
     c_bands:  1 eigenvalues not converged
     c_bands:  2 eigenvalues not converged
     c_bands:  1 eigenvalues not converged
     c_bands:  1 eigenvalues not converged
     c_bands:  1 eigenvalues not converged
     c_bands:  1 eigenvalues not converged
     c_bands:  1 eigenvalues not converged
     c_bands:  2 eigenvalues not converged
     c_bands:  1 eigenvalues not converged
     c_bands:  2 eigenvalues not converged
     c_bands:  2 eigenvalues not converged
     c_bands:  2 eigenvalues not converged
     c_bands:  2 eigenvalues not converged
     c_bands:  2 eigenvalues not converged
     c_bands:  1 eigenvalues not converged
     c_bands:  2 eigenvalues not converged
     c_bands:  2 eigenvalues not converged
     c_bands:  1 eigenvalues not converged
     c_bands:  1 eigenvalues not converged
     c_bands:  1 eigenvalues not converged
     c_bands:  1 eigenvalues not converged
     c_bands:  1 eigenvalues not converged
     c_bands:  1 eigenvalues not converged
     c_bands:  1 eigenvalues not converged
     c_bands:  1 eigenvalues not converged
     ethr =  1.00E-06,  avg # of iterations =  6.2

     total cpu time spent up to now is     3323.6 secs

     total energy              =   -2566.62225803 Ry
     estimated scf accuracy    <       0.00450441 Ry

     total magnetization       =    11.30 Bohr mag/cell
     absolute magnetization    =    11.87 Bohr mag/cell

     iteration #  2     ecut=    90.00 Ry     beta= 0.20
     CG style diagonalization
     ethr =  3.22E-06,  avg # of iterations =  3.6

     total cpu time spent up to now is     3360.9 secs

     total energy              =   -2566.62419151 Ry
     estimated scf accuracy    <       0.00488936 Ry

     total magnetization       =    11.14 Bohr mag/cell
     absolute magnetization    =    11.75 Bohr mag/cell

     iteration #  3     ecut=    90.00 Ry     beta= 0.20
     CG style diagonalization
     ethr =  3.22E-06,  avg # of iterations =  3.0

     total cpu time spent up to now is     3392.0 secs

     total energy              =   -2566.62438963 Ry
     estimated scf accuracy    <       0.00224148 Ry

     total magnetization       =    11.13 Bohr mag/cell
     absolute magnetization    =    11.74 Bohr mag/cell

     iteration #  4     ecut=    90.00 Ry     beta= 0.20
     CG style diagonalization
     ethr =  1.60E-06,  avg # of iterations =  3.0

     total cpu time spent up to now is     3423.2 secs

     total energy              =   -2566.62442341 Ry
     estimated scf accuracy    <       0.00074810 Ry

     total magnetization       =    11.16 Bohr mag/cell
     absolute magnetization    =    11.77 Bohr mag/cell

     iteration #  5     ecut=    90.00 Ry     beta= 0.20
     CG style diagonalization
     ethr =  5.34E-07,  avg # of iterations =  3.0

     total cpu time spent up to now is     3454.3 secs

     total energy              =   -2566.62429790 Ry
     estimated scf accuracy    <       0.00121250 Ry

     total magnetization       =    11.17 Bohr mag/cell
     absolute magnetization    =    11.78 Bohr mag/cell

     iteration #  6     ecut=    90.00 Ry     beta= 0.20
     CG style diagonalization
     ethr =  5.34E-07,  avg # of iterations =  3.2

     total cpu time spent up to now is     3487.3 secs

     total energy              =   -2566.62438838 Ry
     estimated scf accuracy    <       0.00005441 Ry

     total magnetization       =    11.20 Bohr mag/cell
     absolute magnetization    =    11.80 Bohr mag/cell

     iteration #  7     ecut=    90.00 Ry     beta= 0.20
     CG style diagonalization
     ethr =  3.89E-08,  avg # of iterations =  3.4

     total cpu time spent up to now is     3522.2 secs

     total energy              =   -2566.62439435 Ry
     estimated scf accuracy    <       0.00003184 Ry

     total magnetization       =    11.19 Bohr mag/cell
     absolute magnetization    =    11.79 Bohr mag/cell

     iteration #  8     ecut=    90.00 Ry     beta= 0.20
     CG style diagonalization
     ethr =  2.27E-08,  avg # of iterations =  3.0

     total cpu time spent up to now is     3553.4 secs

     total energy              =   -2566.62439743 Ry
     estimated scf accuracy    <       0.00000754 Ry

     total magnetization       =    11.19 Bohr mag/cell
     absolute magnetization    =    11.79 Bohr mag/cell

     iteration #  9     ecut=    90.00 Ry     beta= 0.20
     CG style diagonalization
     ethr =  5.39E-09,  avg # of iterations =  3.1

     total cpu time spent up to now is     3585.1 secs

     total energy              =   -2566.62439709 Ry
     estimated scf accuracy    <       0.00001298 Ry

     total magnetization       =    11.19 Bohr mag/cell
     absolute magnetization    =    11.79 Bohr mag/cell

     iteration # 10     ecut=    90.00 Ry     beta= 0.20
     CG style diagonalization
     ethr =  5.39E-09,  avg # of iterations =  3.0

     total cpu time spent up to now is     3616.3 secs

     total energy              =   -2566.62439539 Ry
     estimated scf accuracy    <       0.00000667 Ry

     total magnetization       =    11.19 Bohr mag/cell
     absolute magnetization    =    11.79 Bohr mag/cell

     iteration # 11     ecut=    90.00 Ry     beta= 0.20
     CG style diagonalization
     ethr =  4.76E-09,  avg # of iterations =  3.2

     total cpu time spent up to now is     3649.8 secs

     total energy              =   -2566.62439624 Ry
     estimated scf accuracy    <       0.00000005 Ry

     total magnetization       =    11.19 Bohr mag/cell
     absolute magnetization    =    11.79 Bohr mag/cell

     iteration # 12     ecut=    90.00 Ry     beta= 0.20
     CG style diagonalization
     ethr =  3.72E-11,  avg # of iterations =  3.8

     total cpu time spent up to now is     3689.4 secs

     total energy              =   -2566.62439626 Ry
     estimated scf accuracy    <       0.00000016 Ry

     total magnetization       =    11.19 Bohr mag/cell
     absolute magnetization    =    11.79 Bohr mag/cell

     iteration # 13     ecut=    90.00 Ry     beta= 0.20
     CG style diagonalization
     ethr =  3.72E-11,  avg # of iterations =  3.1

     total cpu time spent up to now is     3722.0 secs

     total energy              =   -2566.62439627 Ry
     estimated scf accuracy    <       0.00000014 Ry

     total magnetization       =    11.19 Bohr mag/cell
     absolute magnetization    =    11.79 Bohr mag/cell

     iteration # 14     ecut=    90.00 Ry     beta= 0.20
     CG style diagonalization
     ethr =  3.72E-11,  avg # of iterations =  3.0

     total cpu time spent up to now is     3753.2 secs

     total energy              =   -2566.62439628 Ry
     estimated scf accuracy    <       0.00000006 Ry

     total magnetization       =    11.19 Bohr mag/cell
     absolute magnetization    =    11.79 Bohr mag/cell

     iteration # 15     ecut=    90.00 Ry     beta= 0.20
     CG style diagonalization
     ethr =  3.72E-11,  avg # of iterations =  3.0

     total cpu time spent up to now is     3784.4 secs

     total energy              =   -2566.62439628 Ry
     estimated scf accuracy    <       0.00000006 Ry

     total magnetization       =    11.19 Bohr mag/cell
     absolute magnetization    =    11.79 Bohr mag/cell

     iteration # 16     ecut=    90.00 Ry     beta= 0.20
     CG style diagonalization
     ethr =  3.72E-11,  avg # of iterations =  3.0

     total cpu time spent up to now is     3815.6 secs

     total energy              =   -2566.62439628 Ry
     estimated scf accuracy    <       0.00000001 Ry

     total magnetization       =    11.19 Bohr mag/cell
     absolute magnetization    =    11.79 Bohr mag/cell

     iteration # 17     ecut=    90.00 Ry     beta= 0.20
     CG style diagonalization
     ethr =  9.14E-12,  avg # of iterations =  3.0

     total cpu time spent up to now is     3846.8 secs

     total energy              =   -2566.62439628 Ry
     estimated scf accuracy    <       0.00000001 Ry

     total magnetization       =    11.19 Bohr mag/cell
     absolute magnetization    =    11.79 Bohr mag/cell

     iteration # 18     ecut=    90.00 Ry     beta= 0.20
     CG style diagonalization
     ethr =  7.78E-12,  avg # of iterations =  3.0

     total cpu time spent up to now is     3877.9 secs

     total energy              =   -2566.62439628 Ry
     estimated scf accuracy    <       0.00000001 Ry

     total magnetization       =    11.19 Bohr mag/cell
     absolute magnetization    =    11.79 Bohr mag/cell

     iteration # 19     ecut=    90.00 Ry     beta= 0.20
     CG style diagonalization
     ethr =  7.18E-12,  avg # of iterations =  3.0

     total cpu time spent up to now is     3909.1 secs

     total energy              =   -2566.62439628 Ry
     estimated scf accuracy    <          5.0E-09 Ry

     total magnetization       =    11.19 Bohr mag/cell
     absolute magnetization    =    11.79 Bohr mag/cell

     iteration # 20     ecut=    90.00 Ry     beta= 0.20
     CG style diagonalization
     ethr =  3.55E-12,  avg # of iterations =  3.0

     total cpu time spent up to now is     3940.4 secs

     total energy              =   -2566.62439628 Ry
     estimated scf accuracy    <          7.1E-10 Ry

     total magnetization       =    11.19 Bohr mag/cell
     absolute magnetization    =    11.79 Bohr mag/cell

     iteration # 21     ecut=    90.00 Ry     beta= 0.20
     CG style diagonalization
     ethr =  5.04E-13,  avg # of iterations =  3.0

     total cpu time spent up to now is     3971.6 secs

     total energy              =   -2566.62439628 Ry
     estimated scf accuracy    <          3.6E-10 Ry

     total magnetization       =    11.19 Bohr mag/cell
     absolute magnetization    =    11.79 Bohr mag/cell

     iteration # 22     ecut=    90.00 Ry     beta= 0.20
     CG style diagonalization
     ethr =  2.60E-13,  avg # of iterations =  3.4

     total cpu time spent up to now is     4006.8 secs

     total energy              =   -2566.62439628 Ry
     estimated scf accuracy    <          4.9E-10 Ry

[...]

     total energy              =   -2566.74718010 Ry
     estimated scf accuracy    <       0.03880257 Ry

     total magnetization       =    10.70 Bohr mag/cell
     absolute magnetization    =    11.58 Bohr mag/cell

     iteration #  5     ecut=    90.00 Ry     beta= 0.20
     CG style diagonalization
     ethr =  2.77E-05,  avg # of iterations =  3.0

     total cpu time spent up to now is   124528.8 secs

     total energy              =   -2566.74755219 Ry
     estimated scf accuracy    <       0.00783851 Ry

     total magnetization       =    10.66 Bohr mag/cell
     absolute magnetization    =    11.54 Bohr mag/cell

     iteration #  6     ecut=    90.00 Ry     beta= 0.20
     CG style diagonalization
     ethr =  5.60E-06,  avg # of iterations =  3.0

     total cpu time spent up to now is   124559.5 secs

     total energy              =   -2566.74682483 Ry
     estimated scf accuracy    <       0.00566890 Ry

     total magnetization       =    10.65 Bohr mag/cell
     absolute magnetization    =    11.53 Bohr mag/cell

     iteration #  7     ecut=    90.00 Ry     beta= 0.20
     CG style diagonalization
     ethr =  4.05E-06,  avg # of iterations =  3.0

     total cpu time spent up to now is   124590.3 secs

     total energy              =   -2566.74653558 Ry
     estimated scf accuracy    <       0.00207299 Ry

     total magnetization       =    10.63 Bohr mag/cell
     absolute magnetization    =    11.51 Bohr mag/cell

     iteration #  8     ecut=    90.00 Ry     beta= 0.20
     CG style diagonalization
     ethr =  1.48E-06,  avg # of iterations =  3.1

     total cpu time spent up to now is   124621.7 secs

     total energy              =   -2566.74661785 Ry
     estimated scf accuracy    <       0.00021708 Ry

     total magnetization       =    10.60 Bohr mag/cell
     absolute magnetization    =    11.49 Bohr mag/cell

     iteration #  9     ecut=    90.00 Ry     beta= 0.20
     CG style diagonalization
     ethr =  1.55E-07,  avg # of iterations =  3.5

     total cpu time spent up to now is   124657.2 secs

     total energy              =   -2566.74672993 Ry
     estimated scf accuracy    <       0.00028379 Ry

     total magnetization       =    10.59 Bohr mag/cell
     absolute magnetization    =    11.47 Bohr mag/cell

     iteration # 10     ecut=    90.00 Ry     beta= 0.20
     CG style diagonalization
     ethr =  1.55E-07,  avg # of iterations =  3.0

     total cpu time spent up to now is   124687.9 secs

     total energy              =   -2566.74664103 Ry
     estimated scf accuracy    <       0.00032141 Ry

     total magnetization       =    10.58 Bohr mag/cell
     absolute magnetization    =    11.47 Bohr mag/cell

     iteration # 11     ecut=    90.00 Ry     beta= 0.20
     CG style diagonalization
     ethr =  1.55E-07,  avg # of iterations =  3.4

     total cpu time spent up to now is   124722.8 secs

     total energy              =   -2566.74668002 Ry
     estimated scf accuracy    <       0.00001173 Ry

     total magnetization       =    10.60 Bohr mag/cell
     absolute magnetization    =    11.48 Bohr mag/cell

     iteration # 12     ecut=    90.00 Ry     beta= 0.20
     CG style diagonalization
     ethr =  8.38E-09,  avg # of iterations =  3.0

     total cpu time spent up to now is   124754.0 secs

     total energy              =   -2566.74668128 Ry
     estimated scf accuracy    <       0.00000242 Ry

     total magnetization       =    10.60 Bohr mag/cell
     absolute magnetization    =    11.48 Bohr mag/cell

     iteration # 13     ecut=    90.00 Ry     beta= 0.20
     CG style diagonalization
     ethr =  1.73E-09,  avg # of iterations =  3.0

     total cpu time spent up to now is   124785.2 secs

     total energy              =   -2566.74668158 Ry
     estimated scf accuracy    <       0.00000021 Ry

     total magnetization       =    10.60 Bohr mag/cell
     absolute magnetization    =    11.48 Bohr mag/cell

     iteration # 14     ecut=    90.00 Ry     beta= 0.20
     CG style diagonalization
     ethr =  1.50E-10,  avg # of iterations =  3.5

     total cpu time spent up to now is   124821.3 secs

     total energy              =   -2566.74668162 Ry
     estimated scf accuracy    <       0.00000024 Ry

     total magnetization       =    10.60 Bohr mag/cell
     absolute magnetization    =    11.48 Bohr mag/cell

     iteration # 15     ecut=    90.00 Ry     beta= 0.20
     CG style diagonalization
     ethr =  1.50E-10,  avg # of iterations =  3.0

     total cpu time spent up to now is   124852.1 secs

     total energy              =   -2566.74668163 Ry
     estimated scf accuracy    <       0.00000030 Ry

     total magnetization       =    10.60 Bohr mag/cell
     absolute magnetization    =    11.48 Bohr mag/cell

     iteration # 16     ecut=    90.00 Ry     beta= 0.20
     CG style diagonalization
     ethr =  1.50E-10,  avg # of iterations =  3.0

     total cpu time spent up to now is   124882.9 secs

     total energy              =   -2566.74668165 Ry
     estimated scf accuracy    <       0.00000014 Ry

     total magnetization       =    10.60 Bohr mag/cell
     absolute magnetization    =    11.48 Bohr mag/cell

     iteration # 17     ecut=    90.00 Ry     beta= 0.20
     CG style diagonalization
     ethr =  9.70E-11,  avg # of iterations =  3.0

     total cpu time spent up to now is   124913.7 secs

     total energy              =   -2566.74668164 Ry
     estimated scf accuracy    <       0.00000068 Ry

     total magnetization       =    10.60 Bohr mag/cell
     absolute magnetization    =    11.48 Bohr mag/cell

     iteration # 18     ecut=    90.00 Ry     beta= 0.20
     CG style diagonalization
     ethr =  9.70E-11,  avg # of iterations =  3.0

     total cpu time spent up to now is   124944.5 secs

     total energy              =   -2566.74668166 Ry
     estimated scf accuracy    <       0.00000024 Ry

     total magnetization       =    10.60 Bohr mag/cell
     absolute magnetization    =    11.48 Bohr mag/cell

     iteration # 19     ecut=    90.00 Ry     beta= 0.20
     CG style diagonalization
     ethr =  9.70E-11,  avg # of iterations =  3.0

     total cpu time spent up to now is   124975.2 secs

     total energy              =   -2566.74668167 Ry
     estimated scf accuracy    <       0.00000003 Ry

     total magnetization       =    10.60 Bohr mag/cell
     absolute magnetization    =    11.48 Bohr mag/cell

     iteration # 20     ecut=    90.00 Ry     beta= 0.20
     CG style diagonalization
     ethr =  2.04E-11,  avg # of iterations =  3.0

     total cpu time spent up to now is   125006.0 secs

     total energy              =   -2566.74668167 Ry
     estimated scf accuracy    <       0.00000002 Ry

     total magnetization       =    10.60 Bohr mag/cell
     absolute magnetization    =    11.48 Bohr mag/cell

     iteration # 21     ecut=    90.00 Ry     beta= 0.20
     CG style diagonalization
     ethr =  1.16E-11,  avg # of iterations =  3.0

     total cpu time spent up to now is   125036.8 secs

     total energy              =   -2566.74668167 Ry
     estimated scf accuracy    <          6.9E-09 Ry

     total magnetization       =    10.60 Bohr mag/cell
     absolute magnetization    =    11.48 Bohr mag/cell

     iteration # 22     ecut=    90.00 Ry     beta= 0.20
     CG style diagonalization
     ethr =  4.95E-12,  avg # of iterations =  3.0

     total cpu time spent up to now is   125067.6 secs

     total energy              =   -2566.74668167 Ry
     estimated scf accuracy    <          1.0E-08 Ry

     total magnetization       =    10.60 Bohr mag/cell
     absolute magnetization    =    11.48 Bohr mag/cell

     iteration # 23     ecut=    90.00 Ry     beta= 0.20
     CG style diagonalization
     ethr =  4.95E-12,  avg # of iterations =  3.0

     total cpu time spent up to now is   125098.4 secs

     total energy              =   -2566.74668167 Ry
     estimated scf accuracy    <       0.00000002 Ry

     total magnetization       =    10.60 Bohr mag/cell
     absolute magnetization    =    11.48 Bohr mag/cell

     iteration # 24     ecut=    90.00 Ry     beta= 0.20
     CG style diagonalization
     ethr =  4.95E-12,  avg # of iterations =  3.0

     total cpu time spent up to now is   125129.1 secs

     total energy              =   -2566.74668168 Ry
     estimated scf accuracy    <          4.1E-09 Ry

     total magnetization       =    10.60 Bohr mag/cell
     absolute magnetization    =    11.48 Bohr mag/cell

     iteration # 25     ecut=    90.00 Ry     beta= 0.20
     CG style diagonalization
     ethr =  2.91E-12,  avg # of iterations =  3.0

     total cpu time spent up to now is   125159.9 secs

     total energy              =   -2566.74668168 Ry
     estimated scf accuracy    <          2.9E-09 Ry

     total magnetization       =    10.60 Bohr mag/cell
     absolute magnetization    =    11.48 Bohr mag/cell

     iteration # 26     ecut=    90.00 Ry     beta= 0.20
     CG style diagonalization
     ethr =  2.04E-12,  avg # of iterations =  3.0

     total cpu time spent up to now is   125190.7 secs

     total energy              =   -2566.74668168 Ry
     estimated scf accuracy    <          3.9E-09 Ry

     total magnetization       =    10.60 Bohr mag/cell
     absolute magnetization    =    11.48 Bohr mag/cell

     iteration # 27     ecut=    90.00 Ry     beta= 0.20
     CG style diagonalization
     ethr =  2.04E-12,  avg # of iterations =  3.0

     total cpu time spent up to now is   125221.4 secs

     total energy              =   -2566.74668168 Ry
     estimated scf accuracy    <          4.7E-10 Ry

     total magnetization       =    10.60 Bohr mag/cell
     absolute magnetization    =    11.48 Bohr mag/cell

     iteration # 28     ecut=    90.00 Ry     beta= 0.20
     CG style diagonalization
     ethr =  3.36E-13,  avg # of iterations =  3.0

     total cpu time spent up to now is   125252.4 secs

     total energy              =   -2566.74668168 Ry
     estimated scf accuracy    <          4.1E-09 Ry

     total magnetization       =    10.60 Bohr mag/cell
     absolute magnetization    =    11.48 Bohr mag/cell

     iteration # 29     ecut=    90.00 Ry     beta= 0.20
     CG style diagonalization
     ethr =  3.36E-13,  avg # of iterations =  3.0

     total cpu time spent up to now is   125283.1 secs

     total energy              =   -2566.74668168 Ry
     estimated scf accuracy    <          8.6E-10 Ry

     total magnetization       =    10.60 Bohr mag/cell
     absolute magnetization    =    11.48 Bohr mag/cell

     iteration # 30     ecut=    90.00 Ry     beta= 0.20
     CG style diagonalization
     ethr =  3.36E-13,  avg # of iterations =  3.0

     Magnetic moment per site:
     atom:    1    charge:   16.1730    magn:    0.8071    constr:    0.0000
     atom:    2    charge:   14.9960    magn:    1.8978    constr:    0.0000
     atom:    3    charge:   16.1773    magn:    0.8336    constr:    0.0000
     atom:    4    charge:   14.9921    magn:    1.8792    constr:    0.0000
     atom:    5    charge:   16.1516    magn:    0.7866    constr:    0.0000
     atom:    6    charge:   15.0033    magn:    1.9571    constr:    0.0000
     atom:    7    charge:   16.1815    magn:    0.8487    constr:    0.0000
     atom:    8    charge:   14.9927    magn:    1.8703    constr:    0.0000

     total cpu time spent up to now is   125313.9 secs

     End of self-consistent calculation

     Number of k-points >= 100: set verbosity='high' to print the bands.

     the Fermi energy is    15.6702 ev

!    total energy              =   -2566.74668168 Ry
     estimated scf accuracy    <          8.1E-11 Ry
     smearing contrib. (-TS)   =      -0.01001625 Ry
     internal energy E=F+TS    =   -2566.73666543 Ry

     total magnetization       =    10.60 Bohr mag/cell
     absolute magnetization    =    11.48 Bohr mag/cell

     convergence has been achieved in  30 iterations

     Forces acting on atoms (cartesian axes, Ry/au):

     atom    1 type  1   force =    -0.03448984    0.02127680   -0.00810302
     atom    2 type  2   force =    -0.00200434    0.02375754   -0.02533831
     atom    3 type  1   force =    -0.01046757   -0.01096527    0.04256733
     atom    4 type  2   force =    -0.02682388   -0.02736812    0.00065863
     atom    5 type  1   force =     0.03052309   -0.03270400   -0.03711986
     atom    6 type  2   force =     0.00915217   -0.01054268   -0.00504962
     atom    7 type  1   force =     0.01307050    0.02803100    0.00861262
     atom    8 type  2   force =     0.02103988    0.00851473    0.02377223

     Total force =     0.110180     Total SCF correction =     0.000043


     Computing stress (Cartesian axis) and pressure

          total   stress  (Ry/bohr**3)                   (kbar)     P=       -6.66
  -0.00008994  -0.00001374   0.00002864          -13.23       -2.02        4.21
  -0.00001374   0.00002451   0.00001946           -2.02        3.61        2.86
   0.00002864   0.00001946  -0.00007042            4.21        2.86      -10.36


     Entering Dynamics;  it =   102   time =  0.09772 pico-seconds

  new lattice vectors (alat unit) :
   1.004504306   0.002160435   0.003033898
   0.002160435   0.999366811   0.003134134
   0.003033898   0.003134134   1.007483479
  new unit-cell volume =    667.4835 (a.u.)^3
  new positions in cryst coord
Ni      -0.062456830   0.523930822   0.010431455
Co       0.503685564   0.032225496   0.436760865
Ni       0.009518288   0.007280830   0.559793120
Co       0.433622557   0.433482876  -0.009286181
Ni       0.560677737  -0.061437522  -0.056543923
Co      -0.002897482   0.507073887   0.507466903
Ni       0.495596773   0.529565024   0.486779380
Co       0.062266978   0.027875896   0.064600253
  new positions in cart coord (alat unit)
Ni      -0.061574588   0.523496835   0.011962100
Co       0.507349027   0.034662138   0.441658485
Ni       0.011275246   0.009051250   0.564034017
Co       0.436484064   0.434116109  -0.006681514
Ni       0.562898921  -0.060364528  -0.055458582
Co      -0.000275430   0.508337023   0.512844968
Ni       0.500450022   0.531826046   0.493585501
Co       0.062803663   0.028195235   0.065359966

     Ekin =     0.03532971 Ry    T =  399.9 K  Etot =    -2566.71134742
     new unit-cell volume =    667.48352 a.u.^3 (    98.91085 Ang^3 )
     density =      7.89893 g/cm^3

CELL_PARAMETERS (angstrom)
   4.628052689   0.009953774   0.013978076
   0.009953774   4.604382709   0.014439895
   0.013978076   0.014439895   4.641778633

ATOMIC_POSITIONS (angstrom)
Ni           -0.2836925995        2.4119069661        0.0551129847
Co            2.3375091707        0.1596988695        2.0348531398
Ni            0.0519484411        0.0417018238        2.5986739258
Co            2.0110130285        2.0001031502       -0.0307837393
Ni            2.5934441992       -0.2781174912       -0.2555143266
Co           -0.0012689892        2.3420611643        2.3628306197
Ni            2.3057233864        2.4502821397        2.2740964785
Co            0.2893553143        0.1299039041        0.3011329724



     Maximum number of iterations reached, stopping

     init_run     :     12.97s CPU     14.67s WALL (       1 calls)
     electrons    : 120029.24s CPU 123306.59s WALL (     102 calls)
     update_pot   :    161.02s CPU    163.47s WALL (     101 calls)
     forces       :    593.91s CPU    619.15s WALL (     102 calls)
     stress       :   1127.42s CPU   1152.91s WALL (     102 calls)

     Called by init_run:
     wfcinit      :     10.46s CPU     11.22s WALL (       1 calls)
     potinit      :      0.53s CPU      0.65s WALL (       1 calls)
     hinit0       :      1.46s CPU      2.10s WALL (       1 calls)

     Called by electrons:
     c_bands      : 106325.83s CPU 108317.80s WALL (    3602 calls)
     sum_band     :  11905.50s CPU  12692.37s WALL (    3602 calls)
     v_of_rho     :    443.82s CPU    529.60s WALL (    3704 calls)
     newd         :   1298.23s CPU   1697.84s WALL (    3704 calls)
     mix_rho      :     55.06s CPU     69.17s WALL (    3602 calls)

     Called by c_bands:
     init_us_2    :    523.45s CPU    541.23s WALL (  933534 calls)
     ccgdiagg     :  79084.69s CPU  80558.66s WALL (  463283 calls)
     wfcrot       :  26410.14s CPU  26880.81s WALL (  450557 calls)

     Called by *cgdiagg:
     h_psi        :  58023.35s CPU  59154.15s WALL (89125041 calls)
     s_psi        :  19004.40s CPU  19339.89s WALL (******** calls)

     Called by h_psi:
     h_psi:calbec :  12602.55s CPU  12890.21s WALL (89125041 calls)
     vloc_psi     :  33890.95s CPU  34562.63s WALL (89125041 calls)
     add_vuspsi   :  10937.79s CPU  11113.66s WALL (89125041 calls)
     hs_1psi      :  50160.74s CPU  51098.44s WALL (88674484 calls)
     s_1psi       :  17494.75s CPU  17808.05s WALL (88674484 calls)

     General routines
     calbec       :  25341.63s CPU  25939.63s WALL (******** calls)
     fft          :    180.92s CPU    254.49s WALL (   96577 calls)
     ffts         :      5.81s CPU      5.96s WALL (   14612 calls)
     fftw         :  36067.78s CPU  36785.06s WALL (******** calls)
     interpolate  :     17.96s CPU     25.59s WALL (    7408 calls)

     Parallel routines
     fft_scatt_xy :   3463.95s CPU   3523.18s WALL (******** calls)
     fft_scatt_yz :  15166.35s CPU  15550.15s WALL (******** calls)

     PWSCF        :   1d 9h52m CPU   1d10h48m WALL


   This run was terminated on:   8:35:55   3Mar2022            

=------------------------------------------------------------------------------=
   JOB DONE.
=------------------------------------------------------------------------------=
Note: The following floating-point exceptions are signalling: IEEE_UNDERFLOW_FLAG IEEE_DENORMAL
Note: The following floating-point exceptions are signalling: IEEE_UNDERFLOW_FLAG IEEE_DENORMAL
Note: The following floating-point exceptions are signalling: IEEE_UNDERFLOW_FLAG IEEE_DENORMAL
Note: The following floating-point exceptions are signalling: IEEE_UNDERFLOW_FLAG IEEE_DENORMAL
Note: The following floating-point exceptions are signalling: IEEE_UNDERFLOW_FLAG IEEE_DENORMAL
Note: The following floating-point exceptions are signalling: IEEE_UNDERFLOW_FLAG IEEE_DENORMAL
Note: The following floating-point exceptions are signalling: IEEE_UNDERFLOW_FLAG IEEE_DENORMAL
Note: The following floating-point exceptions are signalling: IEEE_UNDERFLOW_FLAG IEEE_DENORMAL
Note: The following floating-point exceptions are signalling: IEEE_UNDERFLOW_FLAG IEEE_DENORMAL
Note: The following floating-point exceptions are signalling: IEEE_UNDERFLOW_FLAG IEEE_DENORMAL
Note: The following floating-point exceptions are signalling: IEEE_UNDERFLOW_FLAG IEEE_DENORMAL
Note: The following floating-point exceptions are signalling: IEEE_UNDERFLOW_FLAG IEEE_DENORMAL
Note: The following floating-point exceptions are signalling: IEEE_UNDERFLOW_FLAG IEEE_DENORMAL
Note: The following floating-point exceptions are signalling: IEEE_UNDERFLOW_FLAG IEEE_DENORMAL
Note: The following floating-point exceptions are signalling: IEEE_UNDERFLOW_FLAG IEEE_DENORMAL
Note: The following floating-point exceptions are signalling: IEEE_UNDERFLOW_FLAG IEEE_DENORMAL
Note: The following floating-point exceptions are signalling: IEEE_UNDERFLOW_FLAG IEEE_DENORMAL
Note: The following floating-point exceptions are signalling: IEEE_UNDERFLOW_FLAG IEEE_DENORMAL
Note: The following floating-point exceptions are signalling: IEEE_UNDERFLOW_FLAG IEEE_DENORMAL
Note: The following floating-point exceptions are signalling: IEEE_UNDERFLOW_FLAG IEEE_DENORMAL
Note: The following floating-point exceptions are signalling: IEEE_UNDERFLOW_FLAG IEEE_DENORMAL
Note: The following floating-point exceptions are signalling: IEEE_UNDERFLOW_FLAG IEEE_DENORMAL
Note: The following floating-point exceptions are signalling: IEEE_UNDERFLOW_FLAG IEEE_DENORMAL
Note: The following floating-point exceptions are signalling: IEEE_UNDERFLOW_FLAG IEEE_DENORMAL
