 # File generated with Atomsk by kevin on 2022-03-20 17:48:00
 
           8  atoms
           2  atom types
 
      0.000000000000       4.553400000000  xlo xhi
      0.000000000000       4.553400000000  ylo yhi
      0.000000000000       4.530633000000  zlo zhi
 
Masses
 
            1   58.93319500             # Co
            2   0.00000000              # XX
 
Atoms # atomic
 
         1    1       -0.001766326760       0.001785873345      -0.005094437824
         2    3        2.272414365781       2.281907395360       2.262707014581
         3    1       -0.001766326760       2.278485873345       2.260222062176
         4    3        2.272414365781       0.005207395360      -0.002609485419
         5    1        2.274933673240       2.278485873345      -0.005094437824
         6    3       -0.001766326760       0.001785873345       2.260222062176
         7    1        2.274933673240       0.001785873345       2.260222062176
         8    3       -0.001766326760       2.278485873345      -0.005094437824
