 # File generated with Atomsk by kevin on 2022-03-20 17:48:00
 
           8  atoms
           2  atom types
 
      0.000000000000       4.530633000000  xlo xhi
      0.000000000000       4.553400000000  ylo yhi
      0.000000000000       4.553400000000  zlo zhi
 
Masses
 
            1   58.93319500             # Co
            2   0.00000000              # XX
 
Atoms # atomic
 
         1    1       -0.001819044521       0.007228340181       0.004222873637
         2    3        2.260382114503       2.281818430209       2.272424816368
         3    1       -0.001819044521       2.283928340181       2.280922873637
         4    3        2.260382114503       0.005118430209      -0.004275183632
         5    1        2.263497455479       2.283928340181       0.004222873637
         6    3       -0.001819044521       0.007228340181       2.280922873637
         7    1        2.263497455479       0.007228340181       2.280922873637
         8    3       -0.001819044521       2.283928340181       0.004222873637
