
     Program PWSCF v.6.7MaX starts on 22Mar2022 at 11:24:26 

     This program is part of the open-source Quantum ESPRESSO suite
     for quantum simulation of materials; please cite
         "P. Giannozzi et al., J. Phys.:Condens. Matter 21 395502 (2009);
         "P. Giannozzi et al., J. Phys.:Condens. Matter 29 465901 (2017);
          URL http://www.quantum-espresso.org", 
     in publications or presentations arising from this work. More details at
     http://www.quantum-espresso.org/quote

     Parallel version (MPI), running on    24 processors

     MPI processes distributed on     1 nodes
     R & G space division:  proc/nbgrp/npool/nimage =      24
     Reading input from /home/kevin/QE_CoCrFeMnNi/CoCrFeMnNi/Opt/binary/Opt-B1-CoFe/Mix/elastic/Chg-2-B1-CoFe.in

     Current dimensions of program PWSCF are:
     Max number of different atomic species (ntypx) = 10
     Max number of k-points (npk) =  40000
     Max angular momentum in pseudopotentials (lmaxx) =  3
     file Fe.pbe-spn-kjpaw_psl.0.2.1.UPF: wavefunction(s)  3D renormalized

     Subspace diagonalization in iterative solution of the eigenvalue problem:
     a serial algorithm will be used

     Found symmetry operation: I + ( -0.0000 -0.5000 -0.5000)
     This is a supercell, fractional translations are disabled

     Parallelization info
     --------------------
     sticks:   dense  smooth     PW     G-vecs:    dense   smooth      PW
     Min         263      87     24                15829     3040     458
     Max         264      88     25                15834     3044     463
     Sum        6331    2101    593               379961    72991   11067



     bravais-lattice index     =            0
     lattice parameter (alat)  =       8.6047  a.u.
     unit-cell volume          =     633.9093 (a.u.)^3
     number of atoms/cell      =            8
     number of atomic types    =            2
     number of electrons       =       132.00
     number of Kohn-Sham states=           79
     kinetic-energy cutoff     =      90.0000  Ry
     charge density cutoff     =    1080.0000  Ry
     scf convergence threshold =      1.0E-08
     mixing beta               =       0.2000
     number of iterations used =            8  plain     mixing
     energy convergence thresh.=      1.0E-05
     force convergence thresh. =      1.0E-04
     Exchange-correlation= SLA  PW   PBE  PBE
                           (   1   4   3   4   0   0   0)
     nstep                     =          100


     celldm(1)=   8.604679  celldm(2)=   0.000000  celldm(3)=   0.000000
     celldm(4)=   0.000000  celldm(5)=   0.000000  celldm(6)=   0.000000

     crystal axes: (cart. coord. in units of alat)
               a(1) = (   1.000000   0.000000   0.000000 )  
               a(2) = (   0.000000   0.995000   0.000000 )  
               a(3) = (   0.000000   0.000000   1.000000 )  

     reciprocal axes: (cart. coord. in units 2 pi/alat)
               b(1) = (  1.000000  0.000000  0.000000 )  
               b(2) = (  0.000000  1.005025  0.000000 )  
               b(3) = (  0.000000  0.000000  1.000000 )  


     PseudoPot. # 1 for Fe read from file:
     /opt/QEpot/SSSP_efficiency_pseudos/Fe.pbe-spn-kjpaw_psl.0.2.1.UPF
     MD5 check sum: e86618425769142926afa95317d90200
     Pseudo is Projector augmented-wave + core cor, Zval = 16.0
     Generated using "atomic" code by A. Dal Corso  v.5.0.99 svn rev. 10869
     Shape of augmentation charge: PSQ
     Using radial grid of 1191 points,  6 beta functions with: 
                l(1) =   0
                l(2) =   0
                l(3) =   1
                l(4) =   1
                l(5) =   2
                l(6) =   2
     Q(r) pseudized with 0 coefficients 


     PseudoPot. # 2 for Co read from file:
     /opt/QEpot/SSSP_efficiency_pseudos/Co_pbe_v1.2.uspp.F.UPF
     MD5 check sum: 5f91765df6ddd3222702df6e7b74a16d
     Pseudo is Ultrasoft + core correction, Zval = 17.0
     Generated by new atomic code, or converted to UPF format
     Using radial grid of  863 points,  6 beta functions with: 
                l(1) =   0
                l(2) =   0
                l(3) =   1
                l(4) =   1
                l(5) =   2
                l(6) =   2
     Q(r) pseudized with  8 coefficients,  rinner =    1.200   1.200   1.200
                                                       1.200   1.200

     atomic species   valence    mass     pseudopotential
        Fe            16.00    55.84500     Fe( 1.00)
        Co            17.00    58.93300     Co( 1.00)

     Starting magnetic structure 
     atomic species   magnetization
        Fe           0.000
        Co           0.000

     No symmetry found



   Cartesian axes

     site n.     atom                  positions (alat units)
         1           Fe  tau(   1) = (  -0.0011178   0.4986705   0.0009724  )
         2           Co  tau(   2) = (   0.4990135   0.0012755   0.5009941  )
         3           Fe  tau(   3) = (  -0.0011179   0.0011706   0.5009725  )
         4           Co  tau(   4) = (   0.4990136   0.4987754   0.0009941  )
         5           Fe  tau(   5) = (   0.5019227   0.0020901   0.0011777  )
         6           Co  tau(   6) = (  -0.0006457   0.4987732   0.5009946  )
         7           Fe  tau(   7) = (   0.5019227   0.4995901   0.5011780  )
         8           Co  tau(   8) = (  -0.0006458   0.0012732   0.0009947  )

     number of k points=   112  Gaussian smearing, width (Ry)=  0.0100

     Number of k-points >= 100: set verbosity='high' to print them.

     Dense  grid:   379961 G-vectors     FFT dimensions: (  96,  90,  96)

     Smooth grid:    72991 G-vectors     FFT dimensions: (  54,  54,  54)

     Estimated max dynamical RAM per process >     173.59 MB

     Estimated total dynamical RAM >       4.07 GB

     Check: negative core charge=   -0.000013
     Generating pointlists ...
     new r_m :   0.2049 (alat units)  1.7630 (a.u.) for type    1
     new r_m :   0.2049 (alat units)  1.7630 (a.u.) for type    2

     Initial potential from superposition of free atoms

     starting charge  127.99822, renormalised to  132.00000
     Starting wfcs are  104 randomized atomic wfcs
     Checking if some PAW data can be deallocated... 

     total cpu time spent up to now is       21.3 secs

     Self-consistent Calculation

     iteration #  1     ecut=    90.00 Ry     beta= 0.20
     Davidson diagonalization with overlap
     ethr =  1.00E-02,  avg # of iterations =  2.0

     total cpu time spent up to now is       73.4 secs

     total energy              =   -2506.11351230 Ry
     estimated scf accuracy    <      22.99702392 Ry

     total magnetization       =    -0.00 Bohr mag/cell
     absolute magnetization    =     0.01 Bohr mag/cell

     iteration #  2     ecut=    90.00 Ry     beta= 0.20
     Davidson diagonalization with overlap
     ethr =  1.00E-02,  avg # of iterations =  3.3

     total cpu time spent up to now is      127.9 secs

     total energy              =   -2508.28471573 Ry
     estimated scf accuracy    <      39.99280954 Ry

     total magnetization       =    -0.00 Bohr mag/cell
     absolute magnetization    =     0.01 Bohr mag/cell

     iteration #  3     ecut=    90.00 Ry     beta= 0.20
     Davidson diagonalization with overlap
     ethr =  1.00E-02,  avg # of iterations =  2.0

     total cpu time spent up to now is      174.7 secs

     total energy              =   -2510.26005560 Ry
     estimated scf accuracy    <       0.34346485 Ry

     total magnetization       =     0.00 Bohr mag/cell
     absolute magnetization    =     0.02 Bohr mag/cell

     iteration #  4     ecut=    90.00 Ry     beta= 0.20
     Davidson diagonalization with overlap
     ethr =  2.60E-04,  avg # of iterations =  4.3

     total cpu time spent up to now is      242.4 secs

     total energy              =   -2510.37624150 Ry
     estimated scf accuracy    <       0.38208444 Ry

     total magnetization       =    -0.00 Bohr mag/cell
     absolute magnetization    =     0.01 Bohr mag/cell

     iteration #  5     ecut=    90.00 Ry     beta= 0.20
     Davidson diagonalization with overlap
     ethr =  2.60E-04,  avg # of iterations =  1.0

     total cpu time spent up to now is      281.7 secs

     total energy              =   -2510.36605954 Ry
     estimated scf accuracy    <       0.14931609 Ry

     total magnetization       =    -0.00 Bohr mag/cell
     absolute magnetization    =     0.01 Bohr mag/cell

     iteration #  6     ecut=    90.00 Ry     beta= 0.20
     Davidson diagonalization with overlap
     ethr =  1.13E-04,  avg # of iterations =  1.0

     total cpu time spent up to now is      320.7 secs

     total energy              =   -2510.37774104 Ry
     estimated scf accuracy    <       0.04425493 Ry

     total magnetization       =    -0.00 Bohr mag/cell
     absolute magnetization    =     0.01 Bohr mag/cell

     iteration #  7     ecut=    90.00 Ry     beta= 0.20
     Davidson diagonalization with overlap
     ethr =  3.35E-05,  avg # of iterations =  1.9

     total cpu time spent up to now is      364.5 secs

     total energy              =   -2510.36994389 Ry
     estimated scf accuracy    <       0.11261039 Ry

     total magnetization       =    -0.00 Bohr mag/cell
     absolute magnetization    =     0.01 Bohr mag/cell

     iteration #  8     ecut=    90.00 Ry     beta= 0.20
     Davidson diagonalization with overlap
     ethr =  3.35E-05,  avg # of iterations =  1.7

     total cpu time spent up to now is      407.9 secs

     total energy              =   -2510.37919711 Ry
     estimated scf accuracy    <       0.05605901 Ry

     total magnetization       =    -0.00 Bohr mag/cell
     absolute magnetization    =     0.01 Bohr mag/cell

     iteration #  9     ecut=    90.00 Ry     beta= 0.20
     Davidson diagonalization with overlap
     ethr =  3.35E-05,  avg # of iterations =  1.4

     total cpu time spent up to now is      448.9 secs

     total energy              =   -2510.36690458 Ry
     estimated scf accuracy    <       0.11982298 Ry

     total magnetization       =    -0.00 Bohr mag/cell
     absolute magnetization    =     0.02 Bohr mag/cell

     iteration # 10     ecut=    90.00 Ry     beta= 0.20
     Davidson diagonalization with overlap
     ethr =  3.35E-05,  avg # of iterations =  2.0

     total cpu time spent up to now is      494.7 secs

     total energy              =   -2510.37640348 Ry
     estimated scf accuracy    <       0.02567470 Ry

     total magnetization       =    -0.00 Bohr mag/cell
     absolute magnetization    =     0.03 Bohr mag/cell

     iteration # 11     ecut=    90.00 Ry     beta= 0.20
     Davidson diagonalization with overlap
     ethr =  1.95E-05,  avg # of iterations =  1.0

     total cpu time spent up to now is      533.7 secs

     total energy              =   -2510.37700208 Ry
     estimated scf accuracy    <       0.00530857 Ry

     total magnetization       =    -0.00 Bohr mag/cell
     absolute magnetization    =     0.03 Bohr mag/cell

     iteration # 12     ecut=    90.00 Ry     beta= 0.20
     Davidson diagonalization with overlap
     c_bands:  1 eigenvalues not converged
     c_bands:  1 eigenvalues not converged
     c_bands:  1 eigenvalues not converged
     c_bands:  1 eigenvalues not converged
     ethr =  4.02E-06,  avg # of iterations =  1.4

     total cpu time spent up to now is      573.6 secs

     total energy              =   -2510.37711762 Ry
     estimated scf accuracy    <       0.00295846 Ry

     total magnetization       =    -0.00 Bohr mag/cell
     absolute magnetization    =     0.03 Bohr mag/cell

     iteration # 13     ecut=    90.00 Ry     beta= 0.20
     Davidson diagonalization with overlap
     ethr =  2.24E-06,  avg # of iterations =  1.1

     total cpu time spent up to now is      612.8 secs

     total energy              =   -2510.37718675 Ry
     estimated scf accuracy    <       0.00002222 Ry

     total magnetization       =    -0.00 Bohr mag/cell
     absolute magnetization    =     0.03 Bohr mag/cell

     iteration # 14     ecut=    90.00 Ry     beta= 0.20
     Davidson diagonalization with overlap
     ethr =  1.68E-08,  avg # of iterations =  5.6

     total cpu time spent up to now is      698.7 secs

     total energy              =   -2510.37720921 Ry
     estimated scf accuracy    <       0.00001243 Ry

     total magnetization       =    -0.01 Bohr mag/cell
     absolute magnetization    =     0.04 Bohr mag/cell

     iteration # 15     ecut=    90.00 Ry     beta= 0.20
     Davidson diagonalization with overlap
     ethr =  9.42E-09,  avg # of iterations =  1.0

     total cpu time spent up to now is      737.7 secs

     total energy              =   -2510.37720871 Ry
     estimated scf accuracy    <       0.00005730 Ry

     total magnetization       =    -0.01 Bohr mag/cell
     absolute magnetization    =     0.04 Bohr mag/cell

     iteration # 16     ecut=    90.00 Ry     beta= 0.20
     Davidson diagonalization with overlap
     ethr =  9.42E-09,  avg # of iterations =  1.0

     total cpu time spent up to now is      776.9 secs

     total energy              =   -2510.37720952 Ry
     estimated scf accuracy    <       0.00001098 Ry

     total magnetization       =    -0.01 Bohr mag/cell
     absolute magnetization    =     0.04 Bohr mag/cell

     iteration # 17     ecut=    90.00 Ry     beta= 0.20
     Davidson diagonalization with overlap
     ethr =  8.32E-09,  avg # of iterations =  1.0

     total cpu time spent up to now is      816.3 secs

     total energy              =   -2510.37720955 Ry
     estimated scf accuracy    <       0.00001247 Ry

     total magnetization       =    -0.01 Bohr mag/cell
     absolute magnetization    =     0.04 Bohr mag/cell

     iteration # 18     ecut=    90.00 Ry     beta= 0.20
     Davidson diagonalization with overlap
     ethr =  8.32E-09,  avg # of iterations =  1.0

     total cpu time spent up to now is      855.7 secs

     total energy              =   -2510.37720867 Ry
     estimated scf accuracy    <       0.00004114 Ry

     total magnetization       =    -0.01 Bohr mag/cell
     absolute magnetization    =     0.04 Bohr mag/cell

     iteration # 19     ecut=    90.00 Ry     beta= 0.20
     Davidson diagonalization with overlap
     ethr =  8.32E-09,  avg # of iterations =  1.3

     total cpu time spent up to now is      896.7 secs

     total energy              =   -2510.37720975 Ry
     estimated scf accuracy    <       0.00002764 Ry

     total magnetization       =    -0.01 Bohr mag/cell
     absolute magnetization    =     0.05 Bohr mag/cell

     iteration # 20     ecut=    90.00 Ry     beta= 0.20
     Davidson diagonalization with overlap
     ethr =  8.32E-09,  avg # of iterations =  1.0

     total cpu time spent up to now is      936.2 secs

     total energy              =   -2510.37721089 Ry
     estimated scf accuracy    <       0.00001245 Ry

     total magnetization       =    -0.01 Bohr mag/cell
     absolute magnetization    =     0.05 Bohr mag/cell

     iteration # 21     ecut=    90.00 Ry     beta= 0.20
     Davidson diagonalization with overlap
     ethr =  8.32E-09,  avg # of iterations =  1.1

     total cpu time spent up to now is      975.6 secs

     total energy              =   -2510.37721107 Ry
     estimated scf accuracy    <       0.00001627 Ry

     total magnetization       =    -0.01 Bohr mag/cell
     absolute magnetization    =     0.05 Bohr mag/cell

     iteration # 22     ecut=    90.00 Ry     beta= 0.20
     Davidson diagonalization with overlap
     ethr =  8.32E-09,  avg # of iterations =  1.0

     total cpu time spent up to now is     1015.0 secs

     total energy              =   -2510.37720596 Ry
     estimated scf accuracy    <       0.00002113 Ry

     total magnetization       =    -0.01 Bohr mag/cell
     absolute magnetization    =     0.05 Bohr mag/cell

     iteration # 23     ecut=    90.00 Ry     beta= 0.20
     Davidson diagonalization with overlap
     ethr =  8.32E-09,  avg # of iterations =  1.0

     total cpu time spent up to now is     1054.3 secs

     total energy              =   -2510.37720552 Ry
     estimated scf accuracy    <       0.00006197 Ry

     total magnetization       =    -0.00 Bohr mag/cell
     absolute magnetization    =     0.03 Bohr mag/cell

     iteration # 24     ecut=    90.00 Ry     beta= 0.20
     Davidson diagonalization with overlap
     ethr =  8.32E-09,  avg # of iterations =  1.0

     total cpu time spent up to now is     1093.2 secs

     total energy              =   -2510.37720571 Ry
     estimated scf accuracy    <       0.00002332 Ry

     total magnetization       =    -0.00 Bohr mag/cell
     absolute magnetization    =     0.02 Bohr mag/cell

     iteration # 25     ecut=    90.00 Ry     beta= 0.20
     Davidson diagonalization with overlap
     ethr =  8.32E-09,  avg # of iterations =  1.0

     total cpu time spent up to now is     1132.0 secs

     total energy              =   -2510.37720551 Ry
     estimated scf accuracy    <       0.00000640 Ry

     total magnetization       =    -0.00 Bohr mag/cell
     absolute magnetization    =     0.02 Bohr mag/cell

     iteration # 26     ecut=    90.00 Ry     beta= 0.20
     Davidson diagonalization with overlap
     ethr =  4.85E-09,  avg # of iterations =  1.1

     total cpu time spent up to now is     1171.1 secs

     total energy              =   -2510.37720468 Ry
     estimated scf accuracy    <       0.00005180 Ry

     total magnetization       =    -0.00 Bohr mag/cell
     absolute magnetization    =     0.01 Bohr mag/cell

     iteration # 27     ecut=    90.00 Ry     beta= 0.20
     Davidson diagonalization with overlap
     ethr =  4.85E-09,  avg # of iterations =  1.0

     total cpu time spent up to now is     1210.0 secs

     total energy              =   -2510.37720549 Ry
     estimated scf accuracy    <       0.00000865 Ry

     total magnetization       =    -0.00 Bohr mag/cell
     absolute magnetization    =     0.01 Bohr mag/cell

     iteration # 28     ecut=    90.00 Ry     beta= 0.20
     Davidson diagonalization with overlap
     ethr =  4.85E-09,  avg # of iterations =  1.0

     total cpu time spent up to now is     1249.0 secs

     total energy              =   -2510.37720538 Ry
     estimated scf accuracy    <       0.00001460 Ry

     total magnetization       =    -0.00 Bohr mag/cell
     absolute magnetization    =     0.01 Bohr mag/cell

     iteration # 29     ecut=    90.00 Ry     beta= 0.20
     Davidson diagonalization with overlap
     ethr =  4.85E-09,  avg # of iterations =  1.0

     total cpu time spent up to now is     1287.7 secs

     total energy              =   -2510.37720464 Ry
     estimated scf accuracy    <       0.00002783 Ry

     total magnetization       =    -0.00 Bohr mag/cell
     absolute magnetization    =     0.01 Bohr mag/cell

     iteration # 30     ecut=    90.00 Ry     beta= 0.20
     Davidson diagonalization with overlap
     ethr =  4.85E-09,  avg # of iterations =  1.0

     total cpu time spent up to now is     1326.6 secs

     total energy              =   -2510.37720529 Ry
     estimated scf accuracy    <       0.00000303 Ry

     total magnetization       =    -0.00 Bohr mag/cell
     absolute magnetization    =     0.01 Bohr mag/cell

     iteration # 31     ecut=    90.00 Ry     beta= 0.20
     Davidson diagonalization with overlap
     ethr =  2.29E-09,  avg # of iterations =  1.0

     total cpu time spent up to now is     1365.4 secs

     total energy              =   -2510.37720529 Ry
     estimated scf accuracy    <       0.00000562 Ry

     total magnetization       =    -0.00 Bohr mag/cell
     absolute magnetization    =     0.01 Bohr mag/cell

     iteration # 32     ecut=    90.00 Ry     beta= 0.20
     Davidson diagonalization with overlap
     ethr =  2.29E-09,  avg # of iterations =  1.0

     total cpu time spent up to now is     1404.3 secs

     total energy              =   -2510.37720527 Ry
     estimated scf accuracy    <       0.00001379 Ry

     total magnetization       =    -0.00 Bohr mag/cell
     absolute magnetization    =     0.01 Bohr mag/cell

     iteration # 33     ecut=    90.00 Ry     beta= 0.20
     Davidson diagonalization with overlap
     ethr =  2.29E-09,  avg # of iterations =  1.0

     total cpu time spent up to now is     1443.1 secs

     total energy              =   -2510.37720549 Ry
     estimated scf accuracy    <       0.00000415 Ry

     total magnetization       =    -0.00 Bohr mag/cell
     absolute magnetization    =     0.01 Bohr mag/cell

     iteration # 34     ecut=    90.00 Ry     beta= 0.20
     Davidson diagonalization with overlap
     ethr =  2.29E-09,  avg # of iterations =  1.0

     total cpu time spent up to now is     1481.9 secs

     total energy              =   -2510.37720555 Ry
     estimated scf accuracy    <       0.00000075 Ry

     total magnetization       =    -0.00 Bohr mag/cell
     absolute magnetization    =     0.01 Bohr mag/cell

     iteration # 35     ecut=    90.00 Ry     beta= 0.20
     Davidson diagonalization with overlap
     ethr =  5.68E-10,  avg # of iterations =  1.1

     total cpu time spent up to now is     1520.9 secs

     total energy              =   -2510.37720557 Ry
     estimated scf accuracy    <       0.00000039 Ry

     total magnetization       =    -0.00 Bohr mag/cell
     absolute magnetization    =     0.01 Bohr mag/cell

     iteration # 36     ecut=    90.00 Ry     beta= 0.20
     Davidson diagonalization with overlap
     ethr =  2.97E-10,  avg # of iterations =  1.0

     total cpu time spent up to now is     1559.6 secs

     total energy              =   -2510.37720558 Ry
     estimated scf accuracy    <       0.00000038 Ry

     total magnetization       =    -0.00 Bohr mag/cell
     absolute magnetization    =     0.01 Bohr mag/cell

     iteration # 37     ecut=    90.00 Ry     beta= 0.20
     Davidson diagonalization with overlap
     ethr =  2.91E-10,  avg # of iterations =  1.0

     total cpu time spent up to now is     1598.4 secs

     total energy              =   -2510.37720556 Ry
     estimated scf accuracy    <       0.00000045 Ry

     total magnetization       =    -0.00 Bohr mag/cell
     absolute magnetization    =     0.01 Bohr mag/cell

     iteration # 38     ecut=    90.00 Ry     beta= 0.20
     Davidson diagonalization with overlap
     ethr =  2.91E-10,  avg # of iterations =  1.0

     total cpu time spent up to now is     1637.1 secs

     total energy              =   -2510.37720556 Ry
     estimated scf accuracy    <       0.00000166 Ry

     total magnetization       =    -0.00 Bohr mag/cell
     absolute magnetization    =     0.01 Bohr mag/cell

     iteration # 39     ecut=    90.00 Ry     beta= 0.20
     Davidson diagonalization with overlap
     ethr =  2.91E-10,  avg # of iterations =  1.0

     total cpu time spent up to now is     1676.0 secs

     total energy              =   -2510.37720556 Ry
     estimated scf accuracy    <       0.00000331 Ry

     total magnetization       =    -0.00 Bohr mag/cell
     absolute magnetization    =     0.01 Bohr mag/cell

     iteration # 40     ecut=    90.00 Ry     beta= 0.20
     Davidson diagonalization with overlap
     ethr =  2.91E-10,  avg # of iterations =  1.0

     total cpu time spent up to now is     1714.7 secs

     total energy              =   -2510.37720559 Ry
     estimated scf accuracy    <       0.00000038 Ry

     total magnetization       =    -0.00 Bohr mag/cell
     absolute magnetization    =     0.01 Bohr mag/cell

     iteration # 41     ecut=    90.00 Ry     beta= 0.20
     Davidson diagonalization with overlap
     ethr =  2.86E-10,  avg # of iterations =  1.0

     total cpu time spent up to now is     1753.4 secs

     total energy              =   -2510.37720548 Ry
     estimated scf accuracy    <       0.00000127 Ry

     total magnetization       =    -0.00 Bohr mag/cell
     absolute magnetization    =     0.01 Bohr mag/cell

     iteration # 42     ecut=    90.00 Ry     beta= 0.20
     Davidson diagonalization with overlap
     ethr =  2.86E-10,  avg # of iterations =  1.0

     total cpu time spent up to now is     1792.1 secs

     total energy              =   -2510.37720550 Ry
     estimated scf accuracy    <       0.00000130 Ry

     total magnetization       =    -0.00 Bohr mag/cell
     absolute magnetization    =     0.01 Bohr mag/cell

     iteration # 43     ecut=    90.00 Ry     beta= 0.20
     Davidson diagonalization with overlap
     ethr =  2.86E-10,  avg # of iterations =  1.0

     total cpu time spent up to now is     1830.8 secs

     total energy              =   -2510.37720553 Ry
     estimated scf accuracy    <       0.00000032 Ry

     total magnetization       =    -0.00 Bohr mag/cell
     absolute magnetization    =     0.01 Bohr mag/cell

     iteration # 44     ecut=    90.00 Ry     beta= 0.20
     Davidson diagonalization with overlap
     ethr =  2.44E-10,  avg # of iterations =  1.0

     total cpu time spent up to now is     1869.5 secs

     total energy              =   -2510.37720548 Ry
     estimated scf accuracy    <       0.00000195 Ry

     total magnetization       =    -0.01 Bohr mag/cell
     absolute magnetization    =     0.01 Bohr mag/cell

     iteration # 45     ecut=    90.00 Ry     beta= 0.20
     Davidson diagonalization with overlap
     ethr =  2.44E-10,  avg # of iterations =  1.0

     total cpu time spent up to now is     1908.3 secs

     total energy              =   -2510.37720550 Ry
     estimated scf accuracy    <       0.00000072 Ry

     total magnetization       =    -0.01 Bohr mag/cell
     absolute magnetization    =     0.01 Bohr mag/cell

     iteration # 46     ecut=    90.00 Ry     beta= 0.20
     Davidson diagonalization with overlap
     ethr =  2.44E-10,  avg # of iterations =  1.0

     total cpu time spent up to now is     1947.0 secs

     total energy              =   -2510.37720553 Ry
     estimated scf accuracy    <       0.00000036 Ry

     total magnetization       =    -0.01 Bohr mag/cell
     absolute magnetization    =     0.01 Bohr mag/cell

     iteration # 47     ecut=    90.00 Ry     beta= 0.20
     Davidson diagonalization with overlap
     ethr =  2.44E-10,  avg # of iterations =  1.0

     total cpu time spent up to now is     1986.0 secs

     total energy              =   -2510.37720555 Ry
     estimated scf accuracy    <       0.00000040 Ry

     total magnetization       =    -0.01 Bohr mag/cell
     absolute magnetization    =     0.01 Bohr mag/cell

     iteration # 48     ecut=    90.00 Ry     beta= 0.20
     Davidson diagonalization with overlap
     ethr =  2.44E-10,  avg # of iterations =  1.0

     total cpu time spent up to now is     2025.3 secs

     total energy              =   -2510.37720555 Ry
     estimated scf accuracy    <       0.00000037 Ry

     total magnetization       =    -0.01 Bohr mag/cell
     absolute magnetization    =     0.01 Bohr mag/cell

     iteration # 49     ecut=    90.00 Ry     beta= 0.20
     Davidson diagonalization with overlap
     ethr =  2.44E-10,  avg # of iterations =  1.0

     total cpu time spent up to now is     2064.5 secs

     total energy              =   -2510.37720556 Ry
     estimated scf accuracy    <       0.00000063 Ry

     total magnetization       =    -0.01 Bohr mag/cell
     absolute magnetization    =     0.01 Bohr mag/cell

     iteration # 50     ecut=    90.00 Ry     beta= 0.20
     Davidson diagonalization with overlap
     ethr =  2.44E-10,  avg # of iterations =  1.0

     total cpu time spent up to now is     2103.8 secs

     total energy              =   -2510.37720550 Ry
     estimated scf accuracy    <       0.00000027 Ry

     total magnetization       =    -0.01 Bohr mag/cell
     absolute magnetization    =     0.01 Bohr mag/cell

     iteration # 51     ecut=    90.00 Ry     beta= 0.20
     Davidson diagonalization with overlap
     ethr =  2.05E-10,  avg # of iterations =  1.0

     total cpu time spent up to now is     2143.1 secs

     total energy              =   -2510.37720551 Ry
     estimated scf accuracy    <       0.00000021 Ry

     total magnetization       =    -0.01 Bohr mag/cell
     absolute magnetization    =     0.01 Bohr mag/cell

     iteration # 52     ecut=    90.00 Ry     beta= 0.20
     Davidson diagonalization with overlap
     ethr =  1.60E-10,  avg # of iterations =  1.0

     total cpu time spent up to now is     2183.0 secs

     total energy              =   -2510.37720549 Ry
     estimated scf accuracy    <       0.00000025 Ry

     total magnetization       =    -0.01 Bohr mag/cell
     absolute magnetization    =     0.01 Bohr mag/cell

     iteration # 53     ecut=    90.00 Ry     beta= 0.20
     Davidson diagonalization with overlap
     ethr =  1.60E-10,  avg # of iterations =  1.0

     total cpu time spent up to now is     2222.1 secs

     total energy              =   -2510.37720550 Ry
     estimated scf accuracy    <       0.00000017 Ry

     total magnetization       =    -0.01 Bohr mag/cell
     absolute magnetization    =     0.01 Bohr mag/cell

     iteration # 54     ecut=    90.00 Ry     beta= 0.20
     Davidson diagonalization with overlap
     ethr =  1.29E-10,  avg # of iterations =  1.0

     total cpu time spent up to now is     2260.7 secs

     total energy              =   -2510.37720550 Ry
     estimated scf accuracy    <       0.00000027 Ry

     total magnetization       =    -0.01 Bohr mag/cell
     absolute magnetization    =     0.01 Bohr mag/cell

     iteration # 55     ecut=    90.00 Ry     beta= 0.20
     Davidson diagonalization with overlap
     ethr =  1.29E-10,  avg # of iterations =  1.0

     total cpu time spent up to now is     2299.4 secs

     total energy              =   -2510.37720551 Ry
     estimated scf accuracy    <       0.00000073 Ry

     total magnetization       =    -0.01 Bohr mag/cell
     absolute magnetization    =     0.01 Bohr mag/cell

     iteration # 56     ecut=    90.00 Ry     beta= 0.20
     Davidson diagonalization with overlap
     ethr =  1.29E-10,  avg # of iterations =  1.1

     total cpu time spent up to now is     2338.6 secs

     total energy              =   -2510.37720553 Ry
     estimated scf accuracy    <       0.00000021 Ry

     total magnetization       =    -0.01 Bohr mag/cell
     absolute magnetization    =     0.01 Bohr mag/cell

     iteration # 57     ecut=    90.00 Ry     beta= 0.20
     Davidson diagonalization with overlap
     ethr =  1.29E-10,  avg # of iterations =  1.0

     total cpu time spent up to now is     2377.8 secs

     total energy              =   -2510.37720552 Ry
     estimated scf accuracy    <       0.00000034 Ry

     total magnetization       =    -0.01 Bohr mag/cell
     absolute magnetization    =     0.01 Bohr mag/cell

     iteration # 58     ecut=    90.00 Ry     beta= 0.20
     Davidson diagonalization with overlap
     ethr =  1.29E-10,  avg # of iterations =  1.0

     total cpu time spent up to now is     2417.0 secs

     total energy              =   -2510.37720552 Ry
     estimated scf accuracy    <       0.00000014 Ry

     total magnetization       =    -0.01 Bohr mag/cell
     absolute magnetization    =     0.01 Bohr mag/cell

     iteration # 59     ecut=    90.00 Ry     beta= 0.20
     Davidson diagonalization with overlap
     ethr =  1.03E-10,  avg # of iterations =  1.0

     total cpu time spent up to now is     2456.1 secs

     total energy              =   -2510.37720553 Ry
     estimated scf accuracy    <       0.00000025 Ry

     total magnetization       =    -0.01 Bohr mag/cell
     absolute magnetization    =     0.01 Bohr mag/cell

     iteration # 60     ecut=    90.00 Ry     beta= 0.20
     Davidson diagonalization with overlap
     ethr =  1.03E-10,  avg # of iterations =  1.0

     total cpu time spent up to now is     2495.3 secs

     total energy              =   -2510.37720553 Ry
     estimated scf accuracy    <       0.00000017 Ry

     total magnetization       =    -0.01 Bohr mag/cell
     absolute magnetization    =     0.01 Bohr mag/cell

     iteration # 61     ecut=    90.00 Ry     beta= 0.20
     Davidson diagonalization with overlap
     ethr =  1.03E-10,  avg # of iterations =  1.0

     total cpu time spent up to now is     2534.3 secs

     total energy              =   -2510.37720552 Ry
     estimated scf accuracy    <       0.00000023 Ry

     total magnetization       =    -0.01 Bohr mag/cell
     absolute magnetization    =     0.01 Bohr mag/cell

     iteration # 62     ecut=    90.00 Ry     beta= 0.20
     Davidson diagonalization with overlap
     ethr =  1.03E-10,  avg # of iterations =  1.0

     total cpu time spent up to now is     2573.4 secs

     total energy              =   -2510.37720550 Ry
     estimated scf accuracy    <       0.00000032 Ry

     total magnetization       =    -0.01 Bohr mag/cell
     absolute magnetization    =     0.01 Bohr mag/cell

     iteration # 63     ecut=    90.00 Ry     beta= 0.20
     Davidson diagonalization with overlap
     ethr =  1.03E-10,  avg # of iterations =  1.0

     total cpu time spent up to now is     2612.5 secs

     total energy              =   -2510.37720551 Ry
     estimated scf accuracy    <       0.00000014 Ry

     total magnetization       =    -0.01 Bohr mag/cell
     absolute magnetization    =     0.01 Bohr mag/cell

     iteration # 64     ecut=    90.00 Ry     beta= 0.20
     Davidson diagonalization with overlap
     ethr =  1.03E-10,  avg # of iterations =  1.0

     total cpu time spent up to now is     2651.5 secs

     total energy              =   -2510.37720552 Ry
     estimated scf accuracy    <       0.00000014 Ry

     total magnetization       =    -0.01 Bohr mag/cell
     absolute magnetization    =     0.01 Bohr mag/cell

     iteration # 65     ecut=    90.00 Ry     beta= 0.20
     Davidson diagonalization with overlap
     ethr =  1.03E-10,  avg # of iterations =  1.0

     total cpu time spent up to now is     2690.1 secs

     total energy              =   -2510.37720552 Ry
     estimated scf accuracy    <       0.00000014 Ry

     total magnetization       =    -0.01 Bohr mag/cell
     absolute magnetization    =     0.01 Bohr mag/cell

     iteration # 66     ecut=    90.00 Ry     beta= 0.20
     Davidson diagonalization with overlap
     ethr =  1.03E-10,  avg # of iterations =  1.0

     total cpu time spent up to now is     2728.7 secs

     total energy              =   -2510.37720552 Ry
     estimated scf accuracy    <       0.00000013 Ry

     total magnetization       =    -0.01 Bohr mag/cell
     absolute magnetization    =     0.01 Bohr mag/cell

     iteration # 67     ecut=    90.00 Ry     beta= 0.20
     Davidson diagonalization with overlap
     ethr =  9.86E-11,  avg # of iterations =  1.1

     total cpu time spent up to now is     2767.4 secs

     total energy              =   -2510.37720553 Ry
     estimated scf accuracy    <       0.00000016 Ry

     total magnetization       =    -0.01 Bohr mag/cell
     absolute magnetization    =     0.01 Bohr mag/cell

     iteration # 68     ecut=    90.00 Ry     beta= 0.20
     Davidson diagonalization with overlap
     ethr =  9.86E-11,  avg # of iterations =  1.0

     total cpu time spent up to now is     2805.9 secs

     total energy              =   -2510.37720552 Ry
     estimated scf accuracy    <       0.00000017 Ry

     total magnetization       =    -0.01 Bohr mag/cell
     absolute magnetization    =     0.01 Bohr mag/cell

     iteration # 69     ecut=    90.00 Ry     beta= 0.20
     Davidson diagonalization with overlap
     ethr =  9.86E-11,  avg # of iterations =  1.0

     total cpu time spent up to now is     2844.4 secs

     total energy              =   -2510.37720549 Ry
     estimated scf accuracy    <       0.00000027 Ry

     total magnetization       =    -0.01 Bohr mag/cell
     absolute magnetization    =     0.01 Bohr mag/cell

     iteration # 70     ecut=    90.00 Ry     beta= 0.20
     Davidson diagonalization with overlap
     ethr =  9.86E-11,  avg # of iterations =  1.0

     total cpu time spent up to now is     2883.0 secs

     total energy              =   -2510.37720549 Ry
     estimated scf accuracy    <       0.00000012 Ry

     total magnetization       =    -0.00 Bohr mag/cell
     absolute magnetization    =     0.01 Bohr mag/cell

     iteration # 71     ecut=    90.00 Ry     beta= 0.20
     Davidson diagonalization with overlap
     ethr =  9.46E-11,  avg # of iterations =  1.0

     total cpu time spent up to now is     2921.5 secs

     total energy              =   -2510.37720546 Ry
     estimated scf accuracy    <       0.00000037 Ry

     total magnetization       =    -0.00 Bohr mag/cell
     absolute magnetization    =     0.01 Bohr mag/cell

     iteration # 72     ecut=    90.00 Ry     beta= 0.20
     Davidson diagonalization with overlap
     ethr =  9.46E-11,  avg # of iterations =  1.0

     total cpu time spent up to now is     2960.2 secs

     total energy              =   -2510.37720544 Ry
     estimated scf accuracy    <       0.00000070 Ry

     total magnetization       =    -0.00 Bohr mag/cell
     absolute magnetization    =     0.01 Bohr mag/cell

     iteration # 73     ecut=    90.00 Ry     beta= 0.20
     Davidson diagonalization with overlap
     ethr =  9.46E-11,  avg # of iterations =  1.1

     total cpu time spent up to now is     2999.6 secs

     total energy              =   -2510.37720546 Ry
     estimated scf accuracy    <       0.00000024 Ry

     total magnetization       =    -0.00 Bohr mag/cell
     absolute magnetization    =     0.01 Bohr mag/cell

     iteration # 74     ecut=    90.00 Ry     beta= 0.20
     Davidson diagonalization with overlap
     ethr =  9.46E-11,  avg # of iterations =  1.0

     total cpu time spent up to now is     3038.1 secs

     total energy              =   -2510.37720547 Ry
     estimated scf accuracy    <       0.00000029 Ry

     total magnetization       =    -0.00 Bohr mag/cell
     absolute magnetization    =     0.01 Bohr mag/cell

     iteration # 75     ecut=    90.00 Ry     beta= 0.20
     Davidson diagonalization with overlap
     ethr =  9.46E-11,  avg # of iterations =  1.1

     total cpu time spent up to now is     3076.7 secs

     total energy              =   -2510.37720546 Ry
     estimated scf accuracy    <       0.00000101 Ry

     total magnetization       =    -0.00 Bohr mag/cell
     absolute magnetization    =     0.01 Bohr mag/cell

     iteration # 76     ecut=    90.00 Ry     beta= 0.20
     Davidson diagonalization with overlap
     ethr =  9.46E-11,  avg # of iterations =  1.0

     total cpu time spent up to now is     3115.3 secs

     total energy              =   -2510.37720547 Ry
     estimated scf accuracy    <       0.00000084 Ry

     total magnetization       =    -0.00 Bohr mag/cell
     absolute magnetization    =     0.01 Bohr mag/cell

     iteration # 77     ecut=    90.00 Ry     beta= 0.20
     Davidson diagonalization with overlap
     ethr =  9.46E-11,  avg # of iterations =  1.1

     total cpu time spent up to now is     3154.1 secs

     total energy              =   -2510.37720541 Ry
     estimated scf accuracy    <       0.00000161 Ry

     total magnetization       =    -0.00 Bohr mag/cell
     absolute magnetization    =     0.01 Bohr mag/cell

     iteration # 78     ecut=    90.00 Ry     beta= 0.20
     Davidson diagonalization with overlap
     ethr =  9.46E-11,  avg # of iterations =  1.1

     total cpu time spent up to now is     3192.8 secs

     total energy              =   -2510.37720548 Ry
     estimated scf accuracy    <       0.00000004 Ry

     total magnetization       =     0.00 Bohr mag/cell
     absolute magnetization    =     0.01 Bohr mag/cell

     iteration # 79     ecut=    90.00 Ry     beta= 0.20
     Davidson diagonalization with overlap
     ethr =  2.83E-11,  avg # of iterations =  1.0

     total cpu time spent up to now is     3231.4 secs

     total energy              =   -2510.37720548 Ry
     estimated scf accuracy    <       0.00000003 Ry

     total magnetization       =     0.00 Bohr mag/cell
     absolute magnetization    =     0.01 Bohr mag/cell

     iteration # 80     ecut=    90.00 Ry     beta= 0.20
     Davidson diagonalization with overlap
     ethr =  2.50E-11,  avg # of iterations =  1.0

     total cpu time spent up to now is     3269.9 secs

     total energy              =   -2510.37720547 Ry
     estimated scf accuracy    <       0.00000003 Ry

     total magnetization       =     0.00 Bohr mag/cell
     absolute magnetization    =     0.01 Bohr mag/cell

     iteration # 81     ecut=    90.00 Ry     beta= 0.20
     Davidson diagonalization with overlap
     ethr =  2.50E-11,  avg # of iterations =  1.0

     total cpu time spent up to now is     3308.4 secs

     total energy              =   -2510.37720547 Ry
     estimated scf accuracy    <       0.00000012 Ry

     total magnetization       =     0.00 Bohr mag/cell
     absolute magnetization    =     0.01 Bohr mag/cell

     iteration # 82     ecut=    90.00 Ry     beta= 0.20
     Davidson diagonalization with overlap
     ethr =  2.50E-11,  avg # of iterations =  1.0

     total cpu time spent up to now is     3346.9 secs

     total energy              =   -2510.37720547 Ry
     estimated scf accuracy    <       0.00000004 Ry

     total magnetization       =     0.00 Bohr mag/cell
     absolute magnetization    =     0.01 Bohr mag/cell

     iteration # 83     ecut=    90.00 Ry     beta= 0.20
     Davidson diagonalization with overlap
     ethr =  2.50E-11,  avg # of iterations =  1.0

     total cpu time spent up to now is     3385.4 secs

     total energy              =   -2510.37720547 Ry
     estimated scf accuracy    <       0.00000004 Ry

     total magnetization       =     0.00 Bohr mag/cell
     absolute magnetization    =     0.01 Bohr mag/cell

     iteration # 84     ecut=    90.00 Ry     beta= 0.20
     Davidson diagonalization with overlap
     ethr =  2.50E-11,  avg # of iterations =  1.0

     total cpu time spent up to now is     3424.0 secs

     total energy              =   -2510.37720548 Ry
     estimated scf accuracy    <       0.00000007 Ry

     total magnetization       =     0.00 Bohr mag/cell
     absolute magnetization    =     0.01 Bohr mag/cell

     iteration # 85     ecut=    90.00 Ry     beta= 0.20
     Davidson diagonalization with overlap
     ethr =  2.50E-11,  avg # of iterations =  1.0

     total cpu time spent up to now is     3463.1 secs

     total energy              =   -2510.37720548 Ry
     estimated scf accuracy    <       0.00000011 Ry

     total magnetization       =     0.00 Bohr mag/cell
     absolute magnetization    =     0.01 Bohr mag/cell

     iteration # 86     ecut=    90.00 Ry     beta= 0.20
     Davidson diagonalization with overlap
     ethr =  2.50E-11,  avg # of iterations =  1.1

     total cpu time spent up to now is     3502.3 secs

     total energy              =   -2510.37720548 Ry
     estimated scf accuracy    <       0.00000009 Ry

     total magnetization       =     0.00 Bohr mag/cell
     absolute magnetization    =     0.01 Bohr mag/cell

     iteration # 87     ecut=    90.00 Ry     beta= 0.20
     Davidson diagonalization with overlap
     ethr =  2.50E-11,  avg # of iterations =  1.0

     total cpu time spent up to now is     3541.1 secs

     total energy              =   -2510.37720548 Ry
     estimated scf accuracy    <       0.00000027 Ry

     total magnetization       =     0.00 Bohr mag/cell
     absolute magnetization    =     0.01 Bohr mag/cell

     iteration # 88     ecut=    90.00 Ry     beta= 0.20
     Davidson diagonalization with overlap
     ethr =  2.50E-11,  avg # of iterations =  1.0

     total cpu time spent up to now is     3579.6 secs

     total energy              =   -2510.37720548 Ry
     estimated scf accuracy    <       0.00000011 Ry

     total magnetization       =     0.00 Bohr mag/cell
     absolute magnetization    =     0.01 Bohr mag/cell

     iteration # 89     ecut=    90.00 Ry     beta= 0.20
     Davidson diagonalization with overlap
     ethr =  2.50E-11,  avg # of iterations =  1.0

     total cpu time spent up to now is     3618.1 secs

     total energy              =   -2510.37720548 Ry
     estimated scf accuracy    <       0.00000002 Ry

     total magnetization       =     0.00 Bohr mag/cell
     absolute magnetization    =     0.01 Bohr mag/cell

     iteration # 90     ecut=    90.00 Ry     beta= 0.20
     Davidson diagonalization with overlap
     ethr =  1.83E-11,  avg # of iterations =  1.0

     total cpu time spent up to now is     3656.6 secs

     total energy              =   -2510.37720547 Ry
     estimated scf accuracy    <       0.00000002 Ry

     total magnetization       =     0.00 Bohr mag/cell
     absolute magnetization    =     0.01 Bohr mag/cell

     iteration # 91     ecut=    90.00 Ry     beta= 0.20
     Davidson diagonalization with overlap
     ethr =  1.69E-11,  avg # of iterations =  1.0

     total cpu time spent up to now is     3695.0 secs

     total energy              =   -2510.37720546 Ry
     estimated scf accuracy    <       0.00000002 Ry

     total magnetization       =     0.00 Bohr mag/cell
     absolute magnetization    =     0.01 Bohr mag/cell

     iteration # 92     ecut=    90.00 Ry     beta= 0.20
     Davidson diagonalization with overlap
     ethr =  1.69E-11,  avg # of iterations =  1.0

     total cpu time spent up to now is     3733.8 secs

     total energy              =   -2510.37720547 Ry
     estimated scf accuracy    <       0.00000010 Ry

     total magnetization       =     0.00 Bohr mag/cell
     absolute magnetization    =     0.00 Bohr mag/cell

     iteration # 93     ecut=    90.00 Ry     beta= 0.20
     Davidson diagonalization with overlap
     ethr =  1.69E-11,  avg # of iterations =  1.1

     total cpu time spent up to now is     3773.0 secs

     total energy              =   -2510.37720547 Ry
     estimated scf accuracy    <       0.00000010 Ry

     total magnetization       =     0.00 Bohr mag/cell
     absolute magnetization    =     0.00 Bohr mag/cell

     iteration # 94     ecut=    90.00 Ry     beta= 0.20
     Davidson diagonalization with overlap
     ethr =  1.69E-11,  avg # of iterations =  1.0

     total cpu time spent up to now is     3811.5 secs

     total energy              =   -2510.37720547 Ry
     estimated scf accuracy    <       0.00000002 Ry

     total magnetization       =     0.00 Bohr mag/cell
     absolute magnetization    =     0.00 Bohr mag/cell

     iteration # 95     ecut=    90.00 Ry     beta= 0.20
     Davidson diagonalization with overlap
     ethr =  1.53E-11,  avg # of iterations =  1.0

     total cpu time spent up to now is     3850.0 secs

     total energy              =   -2510.37720547 Ry
     estimated scf accuracy    <       0.00000002 Ry

     total magnetization       =     0.00 Bohr mag/cell
     absolute magnetization    =     0.00 Bohr mag/cell

     iteration # 96     ecut=    90.00 Ry     beta= 0.20
     Davidson diagonalization with overlap
     ethr =  1.52E-11,  avg # of iterations =  1.0

     total cpu time spent up to now is     3888.5 secs

     total energy              =   -2510.37720547 Ry
     estimated scf accuracy    <       0.00000002 Ry

     total magnetization       =     0.00 Bohr mag/cell
     absolute magnetization    =     0.00 Bohr mag/cell

     iteration # 97     ecut=    90.00 Ry     beta= 0.20
     Davidson diagonalization with overlap
     ethr =  1.46E-11,  avg # of iterations =  1.0

     total cpu time spent up to now is     3927.0 secs

     total energy              =   -2510.37720547 Ry
     estimated scf accuracy    <       0.00000011 Ry

     total magnetization       =     0.00 Bohr mag/cell
     absolute magnetization    =     0.00 Bohr mag/cell

     iteration # 98     ecut=    90.00 Ry     beta= 0.20
     Davidson diagonalization with overlap
     ethr =  1.46E-11,  avg # of iterations =  1.0

     total cpu time spent up to now is     3965.4 secs

     total energy              =   -2510.37720546 Ry
     estimated scf accuracy    <       0.00000011 Ry

     total magnetization       =     0.00 Bohr mag/cell
     absolute magnetization    =     0.00 Bohr mag/cell

     iteration # 99     ecut=    90.00 Ry     beta= 0.20
     Davidson diagonalization with overlap
     ethr =  1.46E-11,  avg # of iterations =  1.9

     total cpu time spent up to now is     4010.0 secs

     total energy              =   -2510.37720547 Ry
     estimated scf accuracy    <       0.00000028 Ry

     total magnetization       =     0.00 Bohr mag/cell
     absolute magnetization    =     0.01 Bohr mag/cell

     iteration #100     ecut=    90.00 Ry     beta= 0.20
     Davidson diagonalization with overlap
     ethr =  1.46E-11,  avg # of iterations =  1.2

     total cpu time spent up to now is     4049.7 secs

     total energy              =   -2510.37720547 Ry
     estimated scf accuracy    <       0.00000005 Ry

     total magnetization       =     0.00 Bohr mag/cell
     absolute magnetization    =     0.00 Bohr mag/cell

     iteration #101     ecut=    90.00 Ry     beta= 0.20
     Davidson diagonalization with overlap
     ethr =  1.46E-11,  avg # of iterations =  1.0

     total cpu time spent up to now is     4088.1 secs

     total energy              =   -2510.37720547 Ry
     estimated scf accuracy    <       0.00000003 Ry

     total magnetization       =     0.00 Bohr mag/cell
     absolute magnetization    =     0.00 Bohr mag/cell

     iteration #102     ecut=    90.00 Ry     beta= 0.20
     Davidson diagonalization with overlap
     ethr =  1.46E-11,  avg # of iterations =  1.0

     total cpu time spent up to now is     4126.6 secs

     total energy              =   -2510.37720546 Ry
     estimated scf accuracy    <       0.00000011 Ry

     total magnetization       =     0.00 Bohr mag/cell
     absolute magnetization    =     0.00 Bohr mag/cell

     iteration #103     ecut=    90.00 Ry     beta= 0.20
     Davidson diagonalization with overlap
     ethr =  1.46E-11,  avg # of iterations =  1.1

     total cpu time spent up to now is     4165.4 secs

     total energy              =   -2510.37720547 Ry
     estimated scf accuracy    <       0.00000009 Ry

     total magnetization       =     0.00 Bohr mag/cell
     absolute magnetization    =     0.00 Bohr mag/cell

     iteration #104     ecut=    90.00 Ry     beta= 0.20
     Davidson diagonalization with overlap
     ethr =  1.46E-11,  avg # of iterations =  1.0

     total cpu time spent up to now is     4203.9 secs

     total energy              =   -2510.37720547 Ry
     estimated scf accuracy    <       0.00000003 Ry

     total magnetization       =     0.00 Bohr mag/cell
     absolute magnetization    =     0.00 Bohr mag/cell

     iteration #105     ecut=    90.00 Ry     beta= 0.20
     Davidson diagonalization with overlap
     ethr =  1.46E-11,  avg # of iterations =  1.0

     total cpu time spent up to now is     4242.4 secs

     total energy              =   -2510.37720547 Ry
     estimated scf accuracy    <       0.00000012 Ry

     total magnetization       =     0.00 Bohr mag/cell
     absolute magnetization    =     0.00 Bohr mag/cell

     iteration #106     ecut=    90.00 Ry     beta= 0.20
     Davidson diagonalization with overlap
     ethr =  1.46E-11,  avg # of iterations =  1.0

     total cpu time spent up to now is     4280.9 secs

     total energy              =   -2510.37720547 Ry
     estimated scf accuracy    <       0.00000002 Ry

     total magnetization       =     0.00 Bohr mag/cell
     absolute magnetization    =     0.00 Bohr mag/cell

     iteration #107     ecut=    90.00 Ry     beta= 0.20
     Davidson diagonalization with overlap
     ethr =  1.46E-11,  avg # of iterations =  1.0

     total cpu time spent up to now is     4319.3 secs

     total energy              =   -2510.37720546 Ry
     estimated scf accuracy    <       0.00000005 Ry

     total magnetization       =     0.00 Bohr mag/cell
     absolute magnetization    =     0.00 Bohr mag/cell

     iteration #108     ecut=    90.00 Ry     beta= 0.20
     Davidson diagonalization with overlap
     ethr =  1.46E-11,  avg # of iterations =  1.0

     total cpu time spent up to now is     4357.8 secs

     total energy              =   -2510.37720547 Ry
     estimated scf accuracy    <       0.00000002 Ry

     total magnetization       =     0.00 Bohr mag/cell
     absolute magnetization    =     0.00 Bohr mag/cell

     iteration #109     ecut=    90.00 Ry     beta= 0.20
     Davidson diagonalization with overlap
     ethr =  1.46E-11,  avg # of iterations =  1.0

     total cpu time spent up to now is     4396.3 secs

     total energy              =   -2510.37720546 Ry
     estimated scf accuracy    <       0.00000011 Ry

     total magnetization       =     0.00 Bohr mag/cell
     absolute magnetization    =     0.00 Bohr mag/cell

     iteration #110     ecut=    90.00 Ry     beta= 0.20
     Davidson diagonalization with overlap
     ethr =  1.46E-11,  avg # of iterations =  1.4

     total cpu time spent up to now is     4436.8 secs

     total energy              =   -2510.37720546 Ry
     estimated scf accuracy    <       0.00000037 Ry

     total magnetization       =     0.00 Bohr mag/cell
     absolute magnetization    =     0.00 Bohr mag/cell

     iteration #111     ecut=    90.00 Ry     beta= 0.20
     Davidson diagonalization with overlap
     ethr =  1.46E-11,  avg # of iterations =  1.0

     total cpu time spent up to now is     4475.3 secs

     total energy              =   -2510.37720547 Ry
     estimated scf accuracy    <       0.00000001 Ry

     total magnetization       =     0.00 Bohr mag/cell
     absolute magnetization    =     0.00 Bohr mag/cell

     iteration #112     ecut=    90.00 Ry     beta= 0.20
     Davidson diagonalization with overlap
     ethr =  9.57E-12,  avg # of iterations =  1.0

     total cpu time spent up to now is     4513.7 secs

     total energy              =   -2510.37720546 Ry
     estimated scf accuracy    <       0.00000005 Ry

     total magnetization       =     0.00 Bohr mag/cell
     absolute magnetization    =     0.00 Bohr mag/cell

     iteration #113     ecut=    90.00 Ry     beta= 0.20
     Davidson diagonalization with overlap
     ethr =  9.57E-12,  avg # of iterations =  1.0

     total cpu time spent up to now is     4552.2 secs

     total energy              =   -2510.37720546 Ry
     estimated scf accuracy    <       0.00000002 Ry

     total magnetization       =     0.00 Bohr mag/cell
     absolute magnetization    =     0.00 Bohr mag/cell

     iteration #114     ecut=    90.00 Ry     beta= 0.20
     Davidson diagonalization with overlap
     ethr =  9.57E-12,  avg # of iterations =  1.3

     total cpu time spent up to now is     4592.7 secs

     total energy              =   -2510.37720545 Ry
     estimated scf accuracy    <       0.00000016 Ry

     total magnetization       =     0.00 Bohr mag/cell
     absolute magnetization    =     0.00 Bohr mag/cell

     iteration #115     ecut=    90.00 Ry     beta= 0.20
     Davidson diagonalization with overlap
     ethr =  9.57E-12,  avg # of iterations =  1.5

     Magnetic moment per site:
     atom:    1    charge:   14.0138    magn:    0.0001    constr:    0.0000
     atom:    2    charge:   15.1640    magn:   -0.0000    constr:    0.0000
     atom:    3    charge:   14.0138    magn:    0.0000    constr:    0.0000
     atom:    4    charge:   15.1639    magn:    0.0001    constr:    0.0000
     atom:    5    charge:   14.0139    magn:    0.0001    constr:    0.0000
     atom:    6    charge:   15.1640    magn:    0.0002    constr:    0.0000
     atom:    7    charge:   14.0140    magn:   -0.0002    constr:    0.0000
     atom:    8    charge:   15.1640    magn:    0.0002    constr:    0.0000

     total cpu time spent up to now is     4634.0 secs

     End of self-consistent calculation

     Number of k-points >= 100: set verbosity='high' to print the bands.

     the Fermi energy is    17.2757 ev

!    total energy              =   -2510.37720546 Ry
     estimated scf accuracy    <          6.6E-09 Ry
     smearing contrib. (-TS)   =      -0.01846495 Ry
     internal energy E=F+TS    =   -2510.35874051 Ry

     The total energy is F=E-TS. E is the sum of the following terms:
     one-electron contribution =   -1154.31064291 Ry
     hartree contribution      =     657.63951341 Ry
     xc contribution           =    -269.55789124 Ry
     ewald contribution        =   -1439.53149397 Ry
     one-center paw contrib.   =    -304.59822580 Ry

     total magnetization       =     0.00 Bohr mag/cell
     absolute magnetization    =     0.00 Bohr mag/cell

     convergence has been achieved in 115 iterations

     Forces acting on atoms (cartesian axes, Ry/au):

     atom    1 type  1   force =    -0.00119451   -0.00038160   -0.00008373
     atom    2 type  2   force =    -0.00066521    0.00008803    0.00001374
     atom    3 type  1   force =    -0.00119348   -0.00038084   -0.00008393
     atom    4 type  2   force =    -0.00066488    0.00008776    0.00001421
     atom    5 type  1   force =     0.00074162    0.00021565    0.00005354
     atom    6 type  2   force =     0.00111888    0.00007688    0.00001723
     atom    7 type  1   force =     0.00073931    0.00021682    0.00005168
     atom    8 type  2   force =     0.00111827    0.00007730    0.00001726

     Total force =     0.002787     Total SCF correction =     0.000003


     Computing stress (Cartesian axis) and pressure

          total   stress  (Ry/bohr**3)                   (kbar)     P=       14.85
   0.00007922   0.00000028   0.00000006           11.65        0.04        0.01
   0.00000028   0.00014479  -0.00000001            0.04       21.30       -0.00
   0.00000006  -0.00000001   0.00007882            0.01       -0.00       11.60


     BFGS Geometry Optimization
     Energy error            =      0.0E+00
     Gradient error          =      1.2E-03

     number of scf cycles    =   1
     number of bfgs steps    =   0

     energy   new            =   -2510.3772054581 Ry

     new trust radius        =       0.0012567721 bohr
     new conv_thr            =       0.0000000100 Ry


ATOMIC_POSITIONS (angstrom)
Fe           -0.0057219430        2.2704440957        0.0043834042
Co            2.2718562653        0.0058544939        2.2812336243
Fe           -0.0057216506        0.0051284501        2.2810836267
Co            2.2718564824        2.2711704106        0.0045339747
Fe            2.2858472356        0.0096313517        0.0053909813
Co           -0.0023482479        2.2711547691        2.2812380140
Fe            2.2858462624        2.2749481237        2.2820911934
Co           -0.0023487648        0.0058384115        0.0045383281



     Writing output data file ./pwscf.save/
     NEW-OLD atomic charge density approx. for the potential

     Check: negative core charge=   -0.000013
     Generating pointlists ...

     total cpu time spent up to now is     4661.1 secs

     Self-consistent Calculation

     iteration #  1     ecut=    90.00 Ry     beta= 0.20
     Davidson diagonalization with overlap
     ethr =  1.00E-06,  avg # of iterations =  3.0

     Threshold (ethr) on eigenvalues was too large:
     Diagonalizing with lowered threshold

     Davidson diagonalization with overlap
     ethr =  9.85E-09,  avg # of iterations =  4.9

     total cpu time spent up to now is     4797.2 secs

     total energy              =   -2510.37720988 Ry
     estimated scf accuracy    <       0.00001334 Ry

     total magnetization       =     0.00 Bohr mag/cell
     absolute magnetization    =     0.00 Bohr mag/cell

     iteration #  2     ecut=    90.00 Ry     beta= 0.20
     Davidson diagonalization with overlap
     ethr =  1.01E-08,  avg # of iterations =  2.3

     total cpu time spent up to now is     4846.7 secs

     total energy              =   -2510.37718921 Ry
     estimated scf accuracy    <       0.00164472 Ry

     total magnetization       =     0.00 Bohr mag/cell
     absolute magnetization    =     0.00 Bohr mag/cell

     iteration #  3     ecut=    90.00 Ry     beta= 0.20
     Davidson diagonalization with overlap
     ethr =  1.01E-08,  avg # of iterations =  2.2

     total cpu time spent up to now is     4893.7 secs

     total energy              =   -2510.37721330 Ry
     estimated scf accuracy    <       0.00003856 Ry

     total magnetization       =     0.00 Bohr mag/cell
     absolute magnetization    =     0.00 Bohr mag/cell

     iteration #  4     ecut=    90.00 Ry     beta= 0.20
     Davidson diagonalization with overlap
     ethr =  1.01E-08,  avg # of iterations =  1.0

     total cpu time spent up to now is     4932.9 secs

     total energy              =   -2510.37721392 Ry
     estimated scf accuracy    <       0.00000023 Ry

     total magnetization       =     0.00 Bohr mag/cell
     absolute magnetization    =     0.00 Bohr mag/cell

     iteration #  5     ecut=    90.00 Ry     beta= 0.20
     Davidson diagonalization with overlap
     ethr =  1.72E-10,  avg # of iterations =  2.7

     total cpu time spent up to now is     4984.8 secs

     total energy              =   -2510.37721380 Ry
     estimated scf accuracy    <       0.00000443 Ry

     total magnetization       =     0.00 Bohr mag/cell
     absolute magnetization    =     0.00 Bohr mag/cell

     iteration #  6     ecut=    90.00 Ry     beta= 0.20
     Davidson diagonalization with overlap
     ethr =  1.72E-10,  avg # of iterations =  1.5

     total cpu time spent up to now is     5026.5 secs

     total energy              =   -2510.37721382 Ry
     estimated scf accuracy    <       0.00000142 Ry

     total magnetization       =     0.00 Bohr mag/cell
     absolute magnetization    =     0.00 Bohr mag/cell

     iteration #  7     ecut=    90.00 Ry     beta= 0.20
     Davidson diagonalization with overlap
     ethr =  1.72E-10,  avg # of iterations =  1.0

     total cpu time spent up to now is     5065.7 secs

     total energy              =   -2510.37721380 Ry
     estimated scf accuracy    <       0.00000006 Ry

     total magnetization       =     0.00 Bohr mag/cell
     absolute magnetization    =     0.00 Bohr mag/cell

     iteration #  8     ecut=    90.00 Ry     beta= 0.20
     Davidson diagonalization with overlap
     ethr =  4.25E-11,  avg # of iterations =  1.4

     total cpu time spent up to now is     5106.8 secs

     total energy              =   -2510.37721375 Ry
     estimated scf accuracy    <       0.00000023 Ry

     total magnetization       =     0.00 Bohr mag/cell
     absolute magnetization    =     0.00 Bohr mag/cell

     iteration #  9     ecut=    90.00 Ry     beta= 0.20
     Davidson diagonalization with overlap
     ethr =  4.25E-11,  avg # of iterations =  1.0

     total cpu time spent up to now is     5146.3 secs

     total energy              =   -2510.37721376 Ry
     estimated scf accuracy    <       0.00000007 Ry

     total magnetization       =     0.00 Bohr mag/cell
     absolute magnetization    =     0.00 Bohr mag/cell

     iteration # 10     ecut=    90.00 Ry     beta= 0.20
     Davidson diagonalization with overlap
     ethr =  4.25E-11,  avg # of iterations =  1.0

     total cpu time spent up to now is     5185.8 secs

     total energy              =   -2510.37721377 Ry
     estimated scf accuracy    <       0.00000008 Ry

     total magnetization       =     0.00 Bohr mag/cell
     absolute magnetization    =     0.00 Bohr mag/cell

     iteration # 11     ecut=    90.00 Ry     beta= 0.20
     Davidson diagonalization with overlap
     ethr =  4.25E-11,  avg # of iterations =  1.0

     total cpu time spent up to now is     5225.3 secs

     total energy              =   -2510.37721377 Ry
     estimated scf accuracy    <       0.00000005 Ry

     total magnetization       =     0.00 Bohr mag/cell
     absolute magnetization    =     0.00 Bohr mag/cell

     iteration # 12     ecut=    90.00 Ry     beta= 0.20
     Davidson diagonalization with overlap
     ethr =  3.43E-11,  avg # of iterations =  1.0

     total cpu time spent up to now is     5264.8 secs

     total energy              =   -2510.37721377 Ry
     estimated scf accuracy    <       0.00000006 Ry

     total magnetization       =     0.00 Bohr mag/cell
     absolute magnetization    =     0.00 Bohr mag/cell

     iteration # 13     ecut=    90.00 Ry     beta= 0.20
     Davidson diagonalization with overlap
     ethr =  3.43E-11,  avg # of iterations =  1.0

     total cpu time spent up to now is     5303.6 secs

     total energy              =   -2510.37721376 Ry
     estimated scf accuracy    <       0.00000019 Ry

     total magnetization       =     0.00 Bohr mag/cell
     absolute magnetization    =     0.00 Bohr mag/cell

     iteration # 14     ecut=    90.00 Ry     beta= 0.20
     Davidson diagonalization with overlap
     ethr =  3.43E-11,  avg # of iterations =  1.0

     total cpu time spent up to now is     5342.9 secs

     total energy              =   -2510.37721370 Ry
     estimated scf accuracy    <       0.00000026 Ry

     total magnetization       =     0.00 Bohr mag/cell
     absolute magnetization    =     0.00 Bohr mag/cell

     iteration # 15     ecut=    90.00 Ry     beta= 0.20
     Davidson diagonalization with overlap
     ethr =  3.43E-11,  avg # of iterations =  1.1

     total cpu time spent up to now is     5382.1 secs

     total energy              =   -2510.37721370 Ry
     estimated scf accuracy    <       0.00000030 Ry

     total magnetization       =     0.00 Bohr mag/cell
     absolute magnetization    =     0.00 Bohr mag/cell

     iteration # 16     ecut=    90.00 Ry     beta= 0.20
     Davidson diagonalization with overlap
     ethr =  3.43E-11,  avg # of iterations =  1.2

     total cpu time spent up to now is     5421.7 secs

     total energy              =   -2510.37721369 Ry
     estimated scf accuracy    <       0.00000073 Ry

     total magnetization       =     0.00 Bohr mag/cell
     absolute magnetization    =     0.00 Bohr mag/cell

     iteration # 17     ecut=    90.00 Ry     beta= 0.20
     Davidson diagonalization with overlap
     ethr =  3.43E-11,  avg # of iterations =  1.1

     total cpu time spent up to now is     5460.7 secs

     total energy              =   -2510.37721370 Ry
     estimated scf accuracy    <       0.00000008 Ry

     total magnetization       =     0.00 Bohr mag/cell
     absolute magnetization    =     0.00 Bohr mag/cell

     iteration # 18     ecut=    90.00 Ry     beta= 0.20
     Davidson diagonalization with overlap
     ethr =  3.43E-11,  avg # of iterations =  1.0

     total cpu time spent up to now is     5499.9 secs

     total energy              =   -2510.37721370 Ry
     estimated scf accuracy    <       0.00000003 Ry

     total magnetization       =     0.00 Bohr mag/cell
     absolute magnetization    =     0.00 Bohr mag/cell

     iteration # 19     ecut=    90.00 Ry     beta= 0.20
     Davidson diagonalization with overlap
     ethr =  2.08E-11,  avg # of iterations =  1.0

     total cpu time spent up to now is     5539.2 secs

     total energy              =   -2510.37721370 Ry
     estimated scf accuracy    <       0.00000005 Ry

     total magnetization       =     0.00 Bohr mag/cell
     absolute magnetization    =     0.00 Bohr mag/cell

     iteration # 20     ecut=    90.00 Ry     beta= 0.20
     Davidson diagonalization with overlap
     ethr =  2.08E-11,  avg # of iterations =  1.0

     total cpu time spent up to now is     5577.9 secs

     total energy              =   -2510.37721369 Ry
     estimated scf accuracy    <       0.00000015 Ry

     total magnetization       =     0.00 Bohr mag/cell
     absolute magnetization    =     0.00 Bohr mag/cell

     iteration # 21     ecut=    90.00 Ry     beta= 0.20
     Davidson diagonalization with overlap
     ethr =  2.08E-11,  avg # of iterations =  1.0

     total cpu time spent up to now is     5616.7 secs

     total energy              =   -2510.37721369 Ry
     estimated scf accuracy    <       0.00000002 Ry

     total magnetization       =     0.00 Bohr mag/cell
     absolute magnetization    =     0.00 Bohr mag/cell

     iteration # 22     ecut=    90.00 Ry     beta= 0.20
     Davidson diagonalization with overlap
     ethr =  1.46E-11,  avg # of iterations =  1.0

     total cpu time spent up to now is     5656.2 secs

     total energy              =   -2510.37721369 Ry
     estimated scf accuracy    <       0.00000002 Ry

     total magnetization       =     0.00 Bohr mag/cell
     absolute magnetization    =     0.00 Bohr mag/cell

     iteration # 23     ecut=    90.00 Ry     beta= 0.20
     Davidson diagonalization with overlap
     ethr =  1.46E-11,  avg # of iterations =  1.0

     total cpu time spent up to now is     5695.6 secs

     total energy              =   -2510.37721369 Ry
     estimated scf accuracy    <       0.00000001 Ry

     total magnetization       =     0.00 Bohr mag/cell
     absolute magnetization    =     0.00 Bohr mag/cell

     iteration # 24     ecut=    90.00 Ry     beta= 0.20
     Davidson diagonalization with overlap
     ethr =  1.03E-11,  avg # of iterations =  1.0

     Magnetic moment per site:
     atom:    1    charge:   14.0139    magn:    0.0001    constr:    0.0000
     atom:    2    charge:   15.1639    magn:    0.0002    constr:    0.0000
     atom:    3    charge:   14.0139    magn:    0.0002    constr:    0.0000
     atom:    4    charge:   15.1639    magn:    0.0001    constr:    0.0000
     atom:    5    charge:   14.0139    magn:    0.0003    constr:    0.0000
     atom:    6    charge:   15.1640    magn:    0.0003    constr:    0.0000
     atom:    7    charge:   14.0139    magn:    0.0002    constr:    0.0000
     atom:    8    charge:   15.1640    magn:    0.0001    constr:    0.0000

     total cpu time spent up to now is     5734.4 secs

     End of self-consistent calculation

     Number of k-points >= 100: set verbosity='high' to print the bands.

     the Fermi energy is    17.2757 ev

!    total energy              =   -2510.37721369 Ry
     estimated scf accuracy    <          5.1E-09 Ry
     smearing contrib. (-TS)   =      -0.01846473 Ry
     internal energy E=F+TS    =   -2510.35874897 Ry

     The total energy is F=E-TS. E is the sum of the following terms:
     one-electron contribution =   -1154.30942850 Ry
     hartree contribution      =     657.63882778 Ry
     xc contribution           =    -269.55786418 Ry
     ewald contribution        =   -1439.53205717 Ry
     one-center paw contrib.   =    -304.59822690 Ry

     total magnetization       =     0.00 Bohr mag/cell
     absolute magnetization    =     0.00 Bohr mag/cell

     convergence has been achieved in  24 iterations

     Forces acting on atoms (cartesian axes, Ry/au):

     atom    1 type  1   force =    -0.00133736   -0.00042928   -0.00009571
     atom    2 type  2   force =    -0.00073624    0.00008261    0.00001168
     atom    3 type  1   force =    -0.00133811   -0.00041992   -0.00009310
     atom    4 type  2   force =    -0.00075249    0.00008308    0.00001286
     atom    5 type  1   force =     0.00088977    0.00026040    0.00006373
     atom    6 type  2   force =     0.00118184    0.00008030    0.00001755
     atom    7 type  1   force =     0.00087975    0.00026486    0.00006461
     atom    8 type  2   force =     0.00121284    0.00007796    0.00001838

     Total force =     0.003110     Total SCF correction =     0.000222


     Computing stress (Cartesian axis) and pressure

          total   stress  (Ry/bohr**3)                   (kbar)     P=       14.79
   0.00007879   0.00000033   0.00000007           11.59        0.05        0.01
   0.00000033   0.00014437  -0.00000001            0.05       21.24       -0.00
   0.00000007  -0.00000001   0.00007839            0.01       -0.00       11.53

     Energy error            =      8.2E-06
     Gradient error          =      1.3E-03

     number of scf cycles    =   2
     number of bfgs steps    =   1

     energy   old            =   -2510.3772054581 Ry
     energy   new            =   -2510.3772136949 Ry

     CASE: energy  _new < energy  _old


     WARNING: bfgs curvature condition failed, Theta= 0.717
     uphill step: resetting bfgs history

     new trust radius        =       0.0013824493 bohr
     new conv_thr            =            1.0E-10 Ry


ATOMIC_POSITIONS (angstrom)
Fe           -0.0064168877        2.2702210275        0.0043336707
Co            2.2714736876        0.0058974231        2.2812396961
Fe           -0.0064169871        0.0049102431        2.2810352478
Co            2.2714654614        2.2712135799        0.0045406560
Fe            2.2863095962        0.0097666638        0.0054240990
Co           -0.0017341190        2.2711964939        2.2812471322
Fe            2.2863034138        2.2750857528        2.2821247680
Co           -0.0017185259        0.0058789223        0.0045478768



     Writing output data file ./pwscf.save/
     NEW-OLD atomic charge density approx. for the potential

     Check: negative core charge=   -0.000013
     Generating pointlists ...

     total cpu time spent up to now is     5761.6 secs

     Self-consistent Calculation

     iteration #  1     ecut=    90.00 Ry     beta= 0.20
     Davidson diagonalization with overlap
     ethr =  1.00E-06,  avg # of iterations =  3.0

     Threshold (ethr) on eigenvalues was too large:
     Diagonalizing with lowered threshold

     Davidson diagonalization with overlap
     ethr =  1.72E-09,  avg # of iterations =  6.7

     total cpu time spent up to now is     5933.8 secs

     total energy              =   -2510.37722382 Ry
     estimated scf accuracy    <       0.00000242 Ry

     total magnetization       =     0.00 Bohr mag/cell
     absolute magnetization    =     0.00 Bohr mag/cell

     iteration #  2     ecut=    90.00 Ry     beta= 0.20
     Davidson diagonalization with overlap
     ethr =  1.83E-09,  avg # of iterations =  2.1

     total cpu time spent up to now is     5982.2 secs

     total energy              =   -2510.37722126 Ry
     estimated scf accuracy    <       0.00018401 Ry

     total magnetization       =     0.00 Bohr mag/cell
     absolute magnetization    =     0.00 Bohr mag/cell

     iteration #  3     ecut=    90.00 Ry     beta= 0.20
     Davidson diagonalization with overlap
     ethr =  1.83E-09,  avg # of iterations =  2.0

     total cpu time spent up to now is     6027.5 secs

     total energy              =   -2510.37722411 Ry
     estimated scf accuracy    <       0.00001126 Ry

     total magnetization       =     0.00 Bohr mag/cell
     absolute magnetization    =     0.00 Bohr mag/cell

     iteration #  4     ecut=    90.00 Ry     beta= 0.20
     Davidson diagonalization with overlap
     ethr =  1.83E-09,  avg # of iterations =  1.0

     total cpu time spent up to now is     6066.1 secs

     total energy              =   -2510.37722414 Ry
     estimated scf accuracy    <       0.00000064 Ry

     total magnetization       =     0.00 Bohr mag/cell
     absolute magnetization    =     0.00 Bohr mag/cell

     iteration #  5     ecut=    90.00 Ry     beta= 0.20
     Davidson diagonalization with overlap
     ethr =  4.85E-10,  avg # of iterations =  1.3

     total cpu time spent up to now is     6106.4 secs

     total energy              =   -2510.37722395 Ry
     estimated scf accuracy    <       0.00000118 Ry

     total magnetization       =     0.00 Bohr mag/cell
     absolute magnetization    =     0.01 Bohr mag/cell

     iteration #  6     ecut=    90.00 Ry     beta= 0.20
     Davidson diagonalization with overlap
     ethr =  4.85E-10,  avg # of iterations =  1.0

     total cpu time spent up to now is     6145.0 secs

     total energy              =   -2510.37722397 Ry
     estimated scf accuracy    <       0.00000130 Ry

     total magnetization       =     0.00 Bohr mag/cell
     absolute magnetization    =     0.01 Bohr mag/cell

     iteration #  7     ecut=    90.00 Ry     beta= 0.20
     Davidson diagonalization with overlap
     ethr =  4.85E-10,  avg # of iterations =  1.0

     total cpu time spent up to now is     6183.8 secs

     total energy              =   -2510.37722387 Ry
     estimated scf accuracy    <       0.00000008 Ry

     total magnetization       =     0.01 Bohr mag/cell
     absolute magnetization    =     0.01 Bohr mag/cell

     iteration #  8     ecut=    90.00 Ry     beta= 0.20
     Davidson diagonalization with overlap
     ethr =  5.88E-11,  avg # of iterations =  1.3

     total cpu time spent up to now is     6224.6 secs

     total energy              =   -2510.37722387 Ry
     estimated scf accuracy    <       0.00000010 Ry

     total magnetization       =     0.01 Bohr mag/cell
     absolute magnetization    =     0.01 Bohr mag/cell

     iteration #  9     ecut=    90.00 Ry     beta= 0.20
     Davidson diagonalization with overlap
     ethr =  5.88E-11,  avg # of iterations =  1.0

     total cpu time spent up to now is     6263.5 secs

     total energy              =   -2510.37722386 Ry
     estimated scf accuracy    <       0.00000010 Ry

     total magnetization       =     0.01 Bohr mag/cell
     absolute magnetization    =     0.01 Bohr mag/cell

     iteration # 10     ecut=    90.00 Ry     beta= 0.20
     Davidson diagonalization with overlap
     ethr =  5.88E-11,  avg # of iterations =  1.0

     total cpu time spent up to now is     6302.3 secs

     total energy              =   -2510.37722390 Ry
     estimated scf accuracy    <       0.00000036 Ry

     total magnetization       =     0.01 Bohr mag/cell
     absolute magnetization    =     0.01 Bohr mag/cell

     iteration # 11     ecut=    90.00 Ry     beta= 0.20
     Davidson diagonalization with overlap
     ethr =  5.88E-11,  avg # of iterations =  1.0

     total cpu time spent up to now is     6341.4 secs

     total energy              =   -2510.37722387 Ry
     estimated scf accuracy    <       0.00000013 Ry

     total magnetization       =     0.01 Bohr mag/cell
     absolute magnetization    =     0.01 Bohr mag/cell

     iteration # 12     ecut=    90.00 Ry     beta= 0.20
     Davidson diagonalization with overlap
     ethr =  5.88E-11,  avg # of iterations =  1.1

     total cpu time spent up to now is     6380.9 secs

     total energy              =   -2510.37722382 Ry
     estimated scf accuracy    <       0.00000048 Ry

     total magnetization       =     0.00 Bohr mag/cell
     absolute magnetization    =     0.01 Bohr mag/cell

     iteration # 13     ecut=    90.00 Ry     beta= 0.20
     Davidson diagonalization with overlap
     ethr =  5.88E-11,  avg # of iterations =  1.0

     total cpu time spent up to now is     6419.7 secs

     total energy              =   -2510.37722381 Ry
     estimated scf accuracy    <       0.00000018 Ry

     total magnetization       =     0.00 Bohr mag/cell
     absolute magnetization    =     0.01 Bohr mag/cell

     iteration # 14     ecut=    90.00 Ry     beta= 0.20
     Davidson diagonalization with overlap
     ethr =  5.88E-11,  avg # of iterations =  1.0

     total cpu time spent up to now is     6458.5 secs

     total energy              =   -2510.37722382 Ry
     estimated scf accuracy    <       0.00000007 Ry

     total magnetization       =     0.00 Bohr mag/cell
     absolute magnetization    =     0.00 Bohr mag/cell

     iteration # 15     ecut=    90.00 Ry     beta= 0.20
     Davidson diagonalization with overlap
     ethr =  5.55E-11,  avg # of iterations =  1.0

     total cpu time spent up to now is     6497.3 secs

[...]
     estimated scf accuracy    <          1.5E-09 Ry

     total magnetization       =    -0.00 Bohr mag/cell
     absolute magnetization    =     0.00 Bohr mag/cell

     iteration # 78     ecut=    90.00 Ry     beta= 0.20
     Davidson diagonalization with overlap
     ethr =  3.29E-13,  avg # of iterations =  1.0

     total cpu time spent up to now is     8968.6 secs

     total energy              =   -2510.37722377 Ry
     estimated scf accuracy    <          8.0E-10 Ry

     total magnetization       =    -0.00 Bohr mag/cell
     absolute magnetization    =     0.00 Bohr mag/cell

     iteration # 79     ecut=    90.00 Ry     beta= 0.20
     Davidson diagonalization with overlap
     ethr =  3.29E-13,  avg # of iterations =  1.0

     total cpu time spent up to now is     9007.5 secs

     total energy              =   -2510.37722377 Ry
     estimated scf accuracy    <          4.8E-10 Ry

     total magnetization       =    -0.00 Bohr mag/cell
     absolute magnetization    =     0.00 Bohr mag/cell

     iteration # 80     ecut=    90.00 Ry     beta= 0.20
     Davidson diagonalization with overlap
     ethr =  3.29E-13,  avg # of iterations =  1.0

     total cpu time spent up to now is     9046.4 secs

     total energy              =   -2510.37722376 Ry
     estimated scf accuracy    <          1.1E-09 Ry

     total magnetization       =    -0.00 Bohr mag/cell
     absolute magnetization    =     0.00 Bohr mag/cell

     iteration # 81     ecut=    90.00 Ry     beta= 0.20
     Davidson diagonalization with overlap
     ethr =  3.29E-13,  avg # of iterations =  1.0

     total cpu time spent up to now is     9085.2 secs

     total energy              =   -2510.37722376 Ry
     estimated scf accuracy    <          2.1E-09 Ry

     total magnetization       =    -0.00 Bohr mag/cell
     absolute magnetization    =     0.00 Bohr mag/cell

     iteration # 82     ecut=    90.00 Ry     beta= 0.20
     Davidson diagonalization with overlap
     ethr =  3.29E-13,  avg # of iterations =  1.2

     total cpu time spent up to now is     9125.2 secs

     total energy              =   -2510.37722376 Ry
     estimated scf accuracy    <          5.5E-10 Ry

     total magnetization       =    -0.00 Bohr mag/cell
     absolute magnetization    =     0.00 Bohr mag/cell

     iteration # 83     ecut=    90.00 Ry     beta= 0.20
     Davidson diagonalization with overlap
     ethr =  3.29E-13,  avg # of iterations =  1.0

     total cpu time spent up to now is     9164.1 secs

     total energy              =   -2510.37722376 Ry
     estimated scf accuracy    <          4.3E-10 Ry

     total magnetization       =    -0.00 Bohr mag/cell
     absolute magnetization    =     0.00 Bohr mag/cell

     iteration # 84     ecut=    90.00 Ry     beta= 0.20
     Davidson diagonalization with overlap
     ethr =  3.25E-13,  avg # of iterations =  1.0

     total cpu time spent up to now is     9202.9 secs

     total energy              =   -2510.37722376 Ry
     estimated scf accuracy    <          5.1E-10 Ry

     total magnetization       =    -0.00 Bohr mag/cell
     absolute magnetization    =     0.00 Bohr mag/cell

     iteration # 85     ecut=    90.00 Ry     beta= 0.20
     Davidson diagonalization with overlap
     ethr =  3.25E-13,  avg # of iterations =  1.0

     total cpu time spent up to now is     9241.6 secs

     total energy              =   -2510.37722377 Ry
     estimated scf accuracy    <          5.5E-10 Ry

     total magnetization       =    -0.00 Bohr mag/cell
     absolute magnetization    =     0.00 Bohr mag/cell

     iteration # 86     ecut=    90.00 Ry     beta= 0.20
     Davidson diagonalization with overlap
     ethr =  3.25E-13,  avg # of iterations =  1.0

     total cpu time spent up to now is     9280.6 secs

     total energy              =   -2510.37722377 Ry
     estimated scf accuracy    <          5.1E-10 Ry

     total magnetization       =    -0.00 Bohr mag/cell
     absolute magnetization    =     0.00 Bohr mag/cell

     iteration # 87     ecut=    90.00 Ry     beta= 0.20
     Davidson diagonalization with overlap
     ethr =  3.25E-13,  avg # of iterations =  1.0

     total cpu time spent up to now is     9320.1 secs

     total energy              =   -2510.37722377 Ry
     estimated scf accuracy    <          4.9E-10 Ry

     total magnetization       =    -0.00 Bohr mag/cell
     absolute magnetization    =     0.00 Bohr mag/cell

     iteration # 88     ecut=    90.00 Ry     beta= 0.20
     Davidson diagonalization with overlap
     ethr =  3.25E-13,  avg # of iterations =  1.0

     total cpu time spent up to now is     9359.5 secs

     total energy              =   -2510.37722376 Ry
     estimated scf accuracy    <          4.6E-10 Ry

     total magnetization       =    -0.00 Bohr mag/cell
     absolute magnetization    =     0.00 Bohr mag/cell

     iteration # 89     ecut=    90.00 Ry     beta= 0.20
     Davidson diagonalization with overlap
     ethr =  3.25E-13,  avg # of iterations =  1.0

     total cpu time spent up to now is     9399.8 secs

     total energy              =   -2510.37722377 Ry
     estimated scf accuracy    <          4.8E-10 Ry

     total magnetization       =    -0.00 Bohr mag/cell
     absolute magnetization    =     0.00 Bohr mag/cell

     iteration # 90     ecut=    90.00 Ry     beta= 0.20
     Davidson diagonalization with overlap
     ethr =  3.25E-13,  avg # of iterations =  1.0

     total cpu time spent up to now is     9439.2 secs

     total energy              =   -2510.37722377 Ry
     estimated scf accuracy    <          6.8E-10 Ry

     total magnetization       =    -0.00 Bohr mag/cell
     absolute magnetization    =     0.00 Bohr mag/cell

     iteration # 91     ecut=    90.00 Ry     beta= 0.20
     Davidson diagonalization with overlap
     ethr =  3.25E-13,  avg # of iterations =  1.0

     total cpu time spent up to now is     9478.6 secs

     total energy              =   -2510.37722377 Ry
     estimated scf accuracy    <          8.6E-10 Ry

     total magnetization       =    -0.00 Bohr mag/cell
     absolute magnetization    =     0.00 Bohr mag/cell

     iteration # 92     ecut=    90.00 Ry     beta= 0.20
     Davidson diagonalization with overlap
     ethr =  3.25E-13,  avg # of iterations =  1.0

     total cpu time spent up to now is     9518.1 secs

     total energy              =   -2510.37722377 Ry
     estimated scf accuracy    <          3.8E-10 Ry

     total magnetization       =    -0.00 Bohr mag/cell
     absolute magnetization    =     0.00 Bohr mag/cell

     iteration # 93     ecut=    90.00 Ry     beta= 0.20
     Davidson diagonalization with overlap
     ethr =  2.86E-13,  avg # of iterations =  1.0

     total cpu time spent up to now is     9557.6 secs

     total energy              =   -2510.37722376 Ry
     estimated scf accuracy    <          4.6E-10 Ry

     total magnetization       =    -0.00 Bohr mag/cell
     absolute magnetization    =     0.00 Bohr mag/cell

     iteration # 94     ecut=    90.00 Ry     beta= 0.20
     Davidson diagonalization with overlap
     ethr =  2.86E-13,  avg # of iterations =  1.0

     total cpu time spent up to now is     9597.0 secs

     total energy              =   -2510.37722376 Ry
     estimated scf accuracy    <          9.0E-10 Ry

     total magnetization       =    -0.00 Bohr mag/cell
     absolute magnetization    =     0.00 Bohr mag/cell

     iteration # 95     ecut=    90.00 Ry     beta= 0.20
     Davidson diagonalization with overlap
     ethr =  2.86E-13,  avg # of iterations =  1.0

     total cpu time spent up to now is     9636.4 secs

     total energy              =   -2510.37722376 Ry
     estimated scf accuracy    <          5.2E-10 Ry

     total magnetization       =     0.00 Bohr mag/cell
     absolute magnetization    =     0.00 Bohr mag/cell

     iteration # 96     ecut=    90.00 Ry     beta= 0.20
     Davidson diagonalization with overlap
     ethr =  2.86E-13,  avg # of iterations =  1.0

     total cpu time spent up to now is     9675.8 secs

     total energy              =   -2510.37722376 Ry
     estimated scf accuracy    <          3.7E-10 Ry

     total magnetization       =     0.00 Bohr mag/cell
     absolute magnetization    =     0.00 Bohr mag/cell

     iteration # 97     ecut=    90.00 Ry     beta= 0.20
     Davidson diagonalization with overlap
     ethr =  2.82E-13,  avg # of iterations =  1.0

     total cpu time spent up to now is     9715.2 secs

     total energy              =   -2510.37722376 Ry
     estimated scf accuracy    <          1.5E-09 Ry

     total magnetization       =     0.00 Bohr mag/cell
     absolute magnetization    =     0.00 Bohr mag/cell

     iteration # 98     ecut=    90.00 Ry     beta= 0.20
     Davidson diagonalization with overlap
     ethr =  2.82E-13,  avg # of iterations =  1.0

     total cpu time spent up to now is     9754.6 secs

     total energy              =   -2510.37722376 Ry
     estimated scf accuracy    <          3.5E-10 Ry

     total magnetization       =     0.00 Bohr mag/cell
     absolute magnetization    =     0.00 Bohr mag/cell

     iteration # 99     ecut=    90.00 Ry     beta= 0.20
     Davidson diagonalization with overlap
     ethr =  2.67E-13,  avg # of iterations =  1.0

     total cpu time spent up to now is     9794.0 secs

     total energy              =   -2510.37722376 Ry
     estimated scf accuracy    <          3.5E-10 Ry

     total magnetization       =     0.00 Bohr mag/cell
     absolute magnetization    =     0.00 Bohr mag/cell

     iteration #100     ecut=    90.00 Ry     beta= 0.20
     Davidson diagonalization with overlap
     ethr =  2.64E-13,  avg # of iterations =  1.0

     total cpu time spent up to now is     9833.4 secs

     total energy              =   -2510.37722376 Ry
     estimated scf accuracy    <          3.4E-10 Ry

     total magnetization       =     0.00 Bohr mag/cell
     absolute magnetization    =     0.00 Bohr mag/cell

     iteration #101     ecut=    90.00 Ry     beta= 0.20
     Davidson diagonalization with overlap
     ethr =  2.60E-13,  avg # of iterations =  1.0

     total cpu time spent up to now is     9872.8 secs

     total energy              =   -2510.37722376 Ry
     estimated scf accuracy    <          4.0E-10 Ry

     total magnetization       =     0.00 Bohr mag/cell
     absolute magnetization    =     0.00 Bohr mag/cell

     iteration #102     ecut=    90.00 Ry     beta= 0.20
     Davidson diagonalization with overlap
     ethr =  2.60E-13,  avg # of iterations =  1.0

     total cpu time spent up to now is     9912.2 secs

     total energy              =   -2510.37722376 Ry
     estimated scf accuracy    <          3.1E-10 Ry

     total magnetization       =     0.00 Bohr mag/cell
     absolute magnetization    =     0.00 Bohr mag/cell

     iteration #103     ecut=    90.00 Ry     beta= 0.20
     Davidson diagonalization with overlap
     ethr =  2.36E-13,  avg # of iterations =  1.0

     total cpu time spent up to now is     9951.5 secs

     total energy              =   -2510.37722376 Ry
     estimated scf accuracy    <          3.3E-10 Ry

     total magnetization       =     0.00 Bohr mag/cell
     absolute magnetization    =     0.00 Bohr mag/cell

     iteration #104     ecut=    90.00 Ry     beta= 0.20
     Davidson diagonalization with overlap
     ethr =  2.36E-13,  avg # of iterations =  1.0

     total cpu time spent up to now is     9990.9 secs

     total energy              =   -2510.37722376 Ry
     estimated scf accuracy    <          3.8E-10 Ry

     total magnetization       =     0.00 Bohr mag/cell
     absolute magnetization    =     0.00 Bohr mag/cell

     iteration #105     ecut=    90.00 Ry     beta= 0.20
     Davidson diagonalization with overlap
     ethr =  2.36E-13,  avg # of iterations =  1.0

     total cpu time spent up to now is    10030.3 secs

     total energy              =   -2510.37722376 Ry
     estimated scf accuracy    <          3.8E-10 Ry

     total magnetization       =     0.00 Bohr mag/cell
     absolute magnetization    =     0.00 Bohr mag/cell

     iteration #106     ecut=    90.00 Ry     beta= 0.20
     Davidson diagonalization with overlap
     ethr =  2.36E-13,  avg # of iterations =  1.0

     total cpu time spent up to now is    10069.7 secs

     total energy              =   -2510.37722376 Ry
     estimated scf accuracy    <          3.9E-10 Ry

     total magnetization       =    -0.00 Bohr mag/cell
     absolute magnetization    =     0.00 Bohr mag/cell

     iteration #107     ecut=    90.00 Ry     beta= 0.20
     Davidson diagonalization with overlap
     ethr =  2.36E-13,  avg # of iterations =  1.1

     total cpu time spent up to now is    10109.5 secs

     total energy              =   -2510.37722376 Ry
     estimated scf accuracy    <          3.3E-10 Ry

     total magnetization       =     0.00 Bohr mag/cell
     absolute magnetization    =     0.00 Bohr mag/cell

     iteration #108     ecut=    90.00 Ry     beta= 0.20
     Davidson diagonalization with overlap
     ethr =  2.36E-13,  avg # of iterations =  1.0

     total cpu time spent up to now is    10148.9 secs

     total energy              =   -2510.37722376 Ry
     estimated scf accuracy    <          3.0E-10 Ry

     total magnetization       =     0.00 Bohr mag/cell
     absolute magnetization    =     0.00 Bohr mag/cell

     iteration #109     ecut=    90.00 Ry     beta= 0.20
     Davidson diagonalization with overlap
     ethr =  2.24E-13,  avg # of iterations =  1.0

     total cpu time spent up to now is    10188.5 secs

     total energy              =   -2510.37722376 Ry
     estimated scf accuracy    <          8.5E-10 Ry

     total magnetization       =     0.00 Bohr mag/cell
     absolute magnetization    =     0.00 Bohr mag/cell

     iteration #110     ecut=    90.00 Ry     beta= 0.20
     Davidson diagonalization with overlap
     ethr =  2.24E-13,  avg # of iterations =  1.0

     total cpu time spent up to now is    10227.9 secs

     total energy              =   -2510.37722376 Ry
     estimated scf accuracy    <          4.0E-10 Ry

     total magnetization       =     0.00 Bohr mag/cell
     absolute magnetization    =     0.00 Bohr mag/cell

     iteration #111     ecut=    90.00 Ry     beta= 0.20
     Davidson diagonalization with overlap
     ethr =  2.24E-13,  avg # of iterations =  1.0

     total cpu time spent up to now is    10267.3 secs

     total energy              =   -2510.37722376 Ry
     estimated scf accuracy    <          2.9E-10 Ry

     total magnetization       =     0.00 Bohr mag/cell
     absolute magnetization    =     0.00 Bohr mag/cell

     iteration #112     ecut=    90.00 Ry     beta= 0.20
     Davidson diagonalization with overlap
     ethr =  2.18E-13,  avg # of iterations =  1.2

     total cpu time spent up to now is    10307.8 secs

     total energy              =   -2510.37722376 Ry
     estimated scf accuracy    <          1.3E-09 Ry

     total magnetization       =     0.00 Bohr mag/cell
     absolute magnetization    =     0.00 Bohr mag/cell

     iteration #113     ecut=    90.00 Ry     beta= 0.20
     Davidson diagonalization with overlap
     ethr =  2.18E-13,  avg # of iterations =  2.1

     total cpu time spent up to now is    10356.2 secs

     total energy              =   -2510.37722376 Ry
     estimated scf accuracy    <          3.4E-10 Ry

     total magnetization       =     0.00 Bohr mag/cell
     absolute magnetization    =     0.00 Bohr mag/cell

     iteration #114     ecut=    90.00 Ry     beta= 0.20
     Davidson diagonalization with overlap
     ethr =  2.18E-13,  avg # of iterations =  1.0

     total cpu time spent up to now is    10395.6 secs

     total energy              =   -2510.37722376 Ry
     estimated scf accuracy    <          4.2E-10 Ry

     total magnetization       =     0.00 Bohr mag/cell
     absolute magnetization    =     0.00 Bohr mag/cell

     iteration #115     ecut=    90.00 Ry     beta= 0.20
     Davidson diagonalization with overlap
     ethr =  2.18E-13,  avg # of iterations =  1.0

     total cpu time spent up to now is    10434.9 secs

     total energy              =   -2510.37722376 Ry
     estimated scf accuracy    <          2.4E-10 Ry

     total magnetization       =     0.00 Bohr mag/cell
     absolute magnetization    =     0.00 Bohr mag/cell

     iteration #116     ecut=    90.00 Ry     beta= 0.20
     Davidson diagonalization with overlap
     ethr =  1.81E-13,  avg # of iterations =  1.0

     total cpu time spent up to now is    10474.4 secs

     total energy              =   -2510.37722376 Ry
     estimated scf accuracy    <          2.3E-10 Ry

     total magnetization       =     0.00 Bohr mag/cell
     absolute magnetization    =     0.00 Bohr mag/cell

     iteration #117     ecut=    90.00 Ry     beta= 0.20
     Davidson diagonalization with overlap
     ethr =  1.70E-13,  avg # of iterations =  1.0

     total cpu time spent up to now is    10513.8 secs

     total energy              =   -2510.37722376 Ry
     estimated scf accuracy    <          2.7E-10 Ry

     total magnetization       =     0.00 Bohr mag/cell
     absolute magnetization    =     0.00 Bohr mag/cell

     iteration #118     ecut=    90.00 Ry     beta= 0.20
     Davidson diagonalization with overlap
     ethr =  1.70E-13,  avg # of iterations =  1.0

     total cpu time spent up to now is    10553.2 secs

     total energy              =   -2510.37722376 Ry
     estimated scf accuracy    <          2.5E-10 Ry

     total magnetization       =     0.00 Bohr mag/cell
     absolute magnetization    =     0.00 Bohr mag/cell

     iteration #119     ecut=    90.00 Ry     beta= 0.20
     Davidson diagonalization with overlap
     ethr =  1.70E-13,  avg # of iterations =  1.0

     total cpu time spent up to now is    10592.6 secs

     total energy              =   -2510.37722376 Ry
     estimated scf accuracy    <          1.7E-10 Ry

     total magnetization       =     0.00 Bohr mag/cell
     absolute magnetization    =     0.00 Bohr mag/cell

     iteration #120     ecut=    90.00 Ry     beta= 0.20
     Davidson diagonalization with overlap
     ethr =  1.28E-13,  avg # of iterations =  1.0

     total cpu time spent up to now is    10632.0 secs

     total energy              =   -2510.37722376 Ry
     estimated scf accuracy    <          1.9E-10 Ry

     total magnetization       =     0.00 Bohr mag/cell
     absolute magnetization    =     0.00 Bohr mag/cell

     iteration #121     ecut=    90.00 Ry     beta= 0.20
     Davidson diagonalization with overlap
     ethr =  1.28E-13,  avg # of iterations =  1.0

     total cpu time spent up to now is    10671.4 secs

     total energy              =   -2510.37722376 Ry
     estimated scf accuracy    <          1.7E-10 Ry

     total magnetization       =     0.00 Bohr mag/cell
     absolute magnetization    =     0.00 Bohr mag/cell

     iteration #122     ecut=    90.00 Ry     beta= 0.20
     Davidson diagonalization with overlap
     ethr =  1.28E-13,  avg # of iterations =  1.0

     total cpu time spent up to now is    10710.8 secs

     total energy              =   -2510.37722376 Ry
     estimated scf accuracy    <          1.8E-10 Ry

     total magnetization       =     0.00 Bohr mag/cell
     absolute magnetization    =     0.00 Bohr mag/cell

     iteration #123     ecut=    90.00 Ry     beta= 0.20
     Davidson diagonalization with overlap
     ethr =  1.28E-13,  avg # of iterations =  1.0

     total cpu time spent up to now is    10750.1 secs

     total energy              =   -2510.37722376 Ry
     estimated scf accuracy    <          1.7E-10 Ry

     total magnetization       =     0.00 Bohr mag/cell
     absolute magnetization    =     0.00 Bohr mag/cell

     iteration #124     ecut=    90.00 Ry     beta= 0.20
     Davidson diagonalization with overlap
