 # File generated with Atomsk by kevin on 2022-03-20 17:48:00
 
           8  atoms
           2  atom types
 
      0.000000000000       4.553400000000  xlo xhi
      0.000000000000       4.530633000000  ylo yhi
      0.000000000000       4.553400000000  zlo zhi
 
Masses
 
            1   58.93319500             # Co
            2   0.00000000              # XX
 
Atoms # atomic
 
         1    1       -0.003970226830       0.005707753199       0.004510615014
         2    3        2.284843500139       2.274645293680       2.282014728294
         3    1       -0.003970226830       2.271024253199       2.281210615014
         4    3        2.284843500139       0.009328793680       0.005314728294
         5    1        2.272729773170       2.271024253199       0.004510615014
         6    3       -0.003970226830       0.005707753199       2.281210615014
         7    1        2.272729773170       0.005707753199       2.281210615014
         8    3       -0.003970226830       2.271024253199       0.004510615014
