 # File generated with Atomsk by kevin on 2022-03-20 17:48:00
 
           8  atoms
           2  atom types
 
      0.000000000000       4.553400000000  xlo xhi
      0.000000000000       4.553400000000  ylo yhi
      0.000000000000       4.553400000000  zlo zhi
      0.000000000000      -0.022767000000       0.000000000000  xy xz yz
 
Masses
 
            1   58.93319500             # Co
            2   0.00000000              # XX
 
Atoms # atomic
 
         1    1       -0.002564895887       0.002792214162       0.005227976848
         2    3        2.256645955702       2.279076449111       2.283285851500
         3    1       -0.013948395887       2.279492214162       2.281927976848
         4    3        2.268029455702       0.002376449111       0.006585851500
         5    1        2.274135104113       2.279492214162       0.005227976848
         6    3       -0.013948395887       0.002792214162       2.281927976848
         7    1        2.262751604113       0.002792214162       2.281927976848
         8    3       -0.002564895887       2.279492214162       0.005227976848
