 # File generated with Atomsk by kevin on 2022-03-20 17:48:00
 
           8  atoms
           2  atom types
 
      0.000000000000       4.553400000000  xlo xhi
      0.000000000000       4.553400000000  ylo yhi
      0.000000000000       4.553400000000  zlo zhi
      0.000000000000       0.000000000000      -0.022767000000  xy xz yz
 
Masses
 
            1   58.93319500             # Co
            2   0.00000000              # XX
 
Atoms # atomic
 
         1    1        0.002348684325       0.004313921755      -0.002608870914
         2    3        2.282869437044       2.271392163355       2.278037735363
         3    1        0.002348684325       2.269630421755       2.274091129086
         4    3        2.282869437044       0.006075663355       0.001337735363
         5    1        2.279048684325       2.281013921755      -0.002608870914
         6    3        0.002348684325      -0.007069578245       2.274091129086
         7    1        2.279048684325      -0.007069578245       2.274091129086
         8    3        0.002348684325       2.281013921755      -0.002608870914
