 # File generated with Atomsk by kevin on 2022-03-20 17:48:00
 
           8  atoms
           2  atom types
 
      0.000000000000       4.553400000000  xlo xhi
      0.000000000000       4.553400000000  ylo yhi
      0.000000000000       4.553400000000  zlo zhi
     -0.022767000000       0.000000000000       0.000000000000  xy xz yz
 
Masses
 
            1   58.93319500             # Co
            2   0.00000000              # XX
 
Atoms # atomic
 
         1    1        0.004663377850      -0.004571864244      -0.006963138757
         2    3        2.273116992347       2.274865900536       2.273953076881
         3    1       -0.006720122150       2.272128135756       2.269736861243
         4    3        2.284500492347      -0.001834099464      -0.002746923119
         5    1        2.269979877850       2.272128135756      -0.006963138757
         6    3        0.004663377850      -0.004571864244       2.269736861243
         7    1        2.281363377850      -0.004571864244       2.269736861243
         8    3       -0.006720122150       2.272128135756      -0.006963138757
