
     Program PWSCF v.6.7MaX starts on 22Mar2022 at 11:16:56 

     This program is part of the open-source Quantum ESPRESSO suite
     for quantum simulation of materials; please cite
         "P. Giannozzi et al., J. Phys.:Condens. Matter 21 395502 (2009);
         "P. Giannozzi et al., J. Phys.:Condens. Matter 29 465901 (2017);
          URL http://www.quantum-espresso.org", 
     in publications or presentations arising from this work. More details at
     http://www.quantum-espresso.org/quote

     Parallel version (MPI), running on    24 processors

     MPI processes distributed on     1 nodes
     R & G space division:  proc/nbgrp/npool/nimage =      24
     Reading input from /home/kevin/QE_CoCrFeMnNi/CoCrFeMnNi/Opt/binary/Opt-B1-CoFe/Mix/elastic/Chg_3-B1-CoFe.in

     Current dimensions of program PWSCF are:
     Max number of different atomic species (ntypx) = 10
     Max number of k-points (npk) =  40000
     Max angular momentum in pseudopotentials (lmaxx) =  3
     file Fe.pbe-spn-kjpaw_psl.0.2.1.UPF: wavefunction(s)  3D renormalized

     Subspace diagonalization in iterative solution of the eigenvalue problem:
     a serial algorithm will be used

     Found symmetry operation: I + (  0.0000  0.5000  0.5000)
     This is a supercell, fractional translations are disabled

     Parallelization info
     --------------------
     sticks:   dense  smooth     PW     G-vecs:    dense   smooth      PW
     Min         264      87     24                15990     3073     458
     Max         266      88     25                15993     3078     465
     Sum        6361    2109    593               383779    73793   11091



     bravais-lattice index     =            0
     lattice parameter (alat)  =       8.6047  a.u.
     unit-cell volume          =     640.2802 (a.u.)^3
     number of atoms/cell      =            8
     number of atomic types    =            2
     number of electrons       =       132.00
     number of Kohn-Sham states=           79
     kinetic-energy cutoff     =      90.0000  Ry
     charge density cutoff     =    1080.0000  Ry
     scf convergence threshold =      1.0E-08
     mixing beta               =       0.2000
     number of iterations used =            8  plain     mixing
     energy convergence thresh.=      1.0E-05
     force convergence thresh. =      1.0E-04
     Exchange-correlation= SLA  PW   PBE  PBE
                           (   1   4   3   4   0   0   0)
     nstep                     =          100


     celldm(1)=   8.604679  celldm(2)=   0.000000  celldm(3)=   0.000000
     celldm(4)=   0.000000  celldm(5)=   0.000000  celldm(6)=   0.000000

     crystal axes: (cart. coord. in units of alat)
               a(1) = (   1.000000   0.000000   0.000000 )  
               a(2) = (   0.000000   1.000000   0.000000 )  
               a(3) = (   0.000000   0.000000   1.005000 )  

     reciprocal axes: (cart. coord. in units 2 pi/alat)
               b(1) = (  1.000000  0.000000  0.000000 )  
               b(2) = (  0.000000  1.000000  0.000000 )  
               b(3) = (  0.000000  0.000000  0.995025 )  


     PseudoPot. # 1 for Fe read from file:
     /opt/QEpot/SSSP_efficiency_pseudos/Fe.pbe-spn-kjpaw_psl.0.2.1.UPF
     MD5 check sum: e86618425769142926afa95317d90200
     Pseudo is Projector augmented-wave + core cor, Zval = 16.0
     Generated using "atomic" code by A. Dal Corso  v.5.0.99 svn rev. 10869
     Shape of augmentation charge: PSQ
     Using radial grid of 1191 points,  6 beta functions with: 
                l(1) =   0
                l(2) =   0
                l(3) =   1
                l(4) =   1
                l(5) =   2
                l(6) =   2
     Q(r) pseudized with 0 coefficients 


     PseudoPot. # 2 for Co read from file:
     /opt/QEpot/SSSP_efficiency_pseudos/Co_pbe_v1.2.uspp.F.UPF
     MD5 check sum: 5f91765df6ddd3222702df6e7b74a16d
     Pseudo is Ultrasoft + core correction, Zval = 17.0
     Generated by new atomic code, or converted to UPF format
     Using radial grid of  863 points,  6 beta functions with: 
                l(1) =   0
                l(2) =   0
                l(3) =   1
                l(4) =   1
                l(5) =   2
                l(6) =   2
     Q(r) pseudized with  8 coefficients,  rinner =    1.200   1.200   1.200
                                                       1.200   1.200

     atomic species   valence    mass     pseudopotential
        Fe            16.00    55.84500     Fe( 1.00)
        Co            17.00    58.93300     Co( 1.00)

     Starting magnetic structure 
     atomic species   magnetization
        Fe           0.000
        Co           0.000

     No symmetry found



   Cartesian axes

     site n.     atom                  positions (alat units)
         1           Fe  tau(   1) = (   0.0241542   0.4880434  -0.0145611  )
         2           Co  tau(   2) = (   0.5225802   0.0004933   0.5015336  )
         3           Fe  tau(   3) = (   0.0241587  -0.0119580   0.4879370  )
         4           Co  tau(   4) = (   0.5225775   0.5004931  -0.0009635  )
         5           Fe  tau(   5) = (   0.4775263   0.0087669   0.0093485  )
         6           Co  tau(   6) = (  -0.0191815   0.4954601   0.4970233  )
         7           Fe  tau(   7) = (   0.4775276   0.5087678   0.5118534  )
         8           Co  tau(   8) = (  -0.0191843  -0.0045393  -0.0054775  )

     number of k points=   112  Gaussian smearing, width (Ry)=  0.0100

     Number of k-points >= 100: set verbosity='high' to print them.

     Dense  grid:   383779 G-vectors     FFT dimensions: (  96,  96,  96)

     Smooth grid:    73793 G-vectors     FFT dimensions: (  54,  54,  54)

     Estimated max dynamical RAM per process >     175.54 MB

     Estimated total dynamical RAM >       4.11 GB

     Check: negative core charge=   -0.000012
     Generating pointlists ...
     new r_m :   0.2037 (alat units)  1.7530 (a.u.) for type    1
     new r_m :   0.2037 (alat units)  1.7530 (a.u.) for type    2

     Initial potential from superposition of free atoms

     starting charge  127.99822, renormalised to  132.00000
     Starting wfcs are  104 randomized atomic wfcs
     Checking if some PAW data can be deallocated... 

     total cpu time spent up to now is       21.0 secs

     Self-consistent Calculation

     iteration #  1     ecut=    90.00 Ry     beta= 0.20
     Davidson diagonalization with overlap
     ethr =  1.00E-02,  avg # of iterations =  2.0

     total cpu time spent up to now is       73.3 secs

     total energy              =   -2506.48609490 Ry
     estimated scf accuracy    <      22.08480326 Ry

     total magnetization       =    -0.00 Bohr mag/cell
     absolute magnetization    =     0.01 Bohr mag/cell

     iteration #  2     ecut=    90.00 Ry     beta= 0.20
     Davidson diagonalization with overlap
     ethr =  1.00E-02,  avg # of iterations =  3.2

     total cpu time spent up to now is      127.0 secs

     total energy              =   -2508.23822172 Ry
     estimated scf accuracy    <      37.85150619 Ry

     total magnetization       =    -0.00 Bohr mag/cell
     absolute magnetization    =     0.01 Bohr mag/cell

     iteration #  3     ecut=    90.00 Ry     beta= 0.20
     Davidson diagonalization with overlap
     ethr =  1.00E-02,  avg # of iterations =  2.0

     total cpu time spent up to now is      173.1 secs

     total energy              =   -2510.24861976 Ry
     estimated scf accuracy    <       0.77097274 Ry

     total magnetization       =    -0.00 Bohr mag/cell
     absolute magnetization    =     0.01 Bohr mag/cell

     iteration #  4     ecut=    90.00 Ry     beta= 0.20
     Davidson diagonalization with overlap
     ethr =  5.84E-04,  avg # of iterations =  2.5

     total cpu time spent up to now is      225.6 secs

     total energy              =   -2510.38002074 Ry
     estimated scf accuracy    <       0.66856756 Ry

     total magnetization       =    -0.00 Bohr mag/cell
     absolute magnetization    =     0.01 Bohr mag/cell

     iteration #  5     ecut=    90.00 Ry     beta= 0.20
     Davidson diagonalization with overlap
     ethr =  5.06E-04,  avg # of iterations =  1.0

     total cpu time spent up to now is      264.6 secs

     total energy              =   -2510.39438005 Ry
     estimated scf accuracy    <       0.03566345 Ry

     total magnetization       =    -0.00 Bohr mag/cell
     absolute magnetization    =     0.01 Bohr mag/cell

     iteration #  6     ecut=    90.00 Ry     beta= 0.20
     Davidson diagonalization with overlap
     ethr =  2.70E-05,  avg # of iterations =  4.1

     total cpu time spent up to now is      318.1 secs

     total energy              =   -2510.39302979 Ry
     estimated scf accuracy    <       0.02994632 Ry

     total magnetization       =    -0.00 Bohr mag/cell
     absolute magnetization    =     0.01 Bohr mag/cell

     iteration #  7     ecut=    90.00 Ry     beta= 0.20
     Davidson diagonalization with overlap
     ethr =  2.27E-05,  avg # of iterations =  2.1

     total cpu time spent up to now is      369.0 secs

     total energy              =   -2510.39731989 Ry
     estimated scf accuracy    <       0.00705380 Ry

     total magnetization       =    -0.00 Bohr mag/cell
     absolute magnetization    =     0.01 Bohr mag/cell

     iteration #  8     ecut=    90.00 Ry     beta= 0.20
     Davidson diagonalization with overlap
     ethr =  5.34E-06,  avg # of iterations =  2.3

     total cpu time spent up to now is      413.5 secs

     total energy              =   -2510.39624869 Ry
     estimated scf accuracy    <       0.06252112 Ry

     total magnetization       =    -0.00 Bohr mag/cell
     absolute magnetization    =     0.01 Bohr mag/cell

     iteration #  9     ecut=    90.00 Ry     beta= 0.20
     Davidson diagonalization with overlap
     ethr =  5.34E-06,  avg # of iterations =  1.7

     total cpu time spent up to now is      456.3 secs

     total energy              =   -2510.39716872 Ry
     estimated scf accuracy    <       0.01459097 Ry

     total magnetization       =    -0.00 Bohr mag/cell
     absolute magnetization    =     0.01 Bohr mag/cell

     iteration # 10     ecut=    90.00 Ry     beta= 0.20
     Davidson diagonalization with overlap
     ethr =  5.34E-06,  avg # of iterations =  1.0

     total cpu time spent up to now is      495.4 secs

     total energy              =   -2510.39659645 Ry
     estimated scf accuracy    <       0.00643719 Ry

     total magnetization       =    -0.00 Bohr mag/cell
     absolute magnetization    =     0.02 Bohr mag/cell

     iteration # 11     ecut=    90.00 Ry     beta= 0.20
     Davidson diagonalization with overlap
     ethr =  4.88E-06,  avg # of iterations =  1.7

     total cpu time spent up to now is      538.0 secs

     total energy              =   -2510.39697440 Ry
     estimated scf accuracy    <       0.01056783 Ry

     total magnetization       =    -0.01 Bohr mag/cell
     absolute magnetization    =     0.02 Bohr mag/cell

     iteration # 12     ecut=    90.00 Ry     beta= 0.20
     Davidson diagonalization with overlap
     ethr =  4.88E-06,  avg # of iterations =  1.0

     total cpu time spent up to now is      577.0 secs

     total energy              =   -2510.39728551 Ry
     estimated scf accuracy    <       0.00362283 Ry

     total magnetization       =    -0.01 Bohr mag/cell
     absolute magnetization    =     0.02 Bohr mag/cell

     iteration # 13     ecut=    90.00 Ry     beta= 0.20
     Davidson diagonalization with overlap
     ethr =  2.74E-06,  avg # of iterations =  1.0

     total cpu time spent up to now is      616.1 secs

     total energy              =   -2510.39735747 Ry
     estimated scf accuracy    <       0.00003763 Ry

     total magnetization       =    -0.01 Bohr mag/cell
     absolute magnetization    =     0.02 Bohr mag/cell

     iteration # 14     ecut=    90.00 Ry     beta= 0.20
     Davidson diagonalization with overlap
     ethr =  2.85E-08,  avg # of iterations =  4.8

     total cpu time spent up to now is      689.0 secs

     total energy              =   -2510.39736007 Ry
     estimated scf accuracy    <       0.00057387 Ry

     total magnetization       =    -0.01 Bohr mag/cell
     absolute magnetization    =     0.03 Bohr mag/cell

     iteration # 15     ecut=    90.00 Ry     beta= 0.20
     Davidson diagonalization with overlap
     ethr =  2.85E-08,  avg # of iterations =  1.6

     total cpu time spent up to now is      731.0 secs

     total energy              =   -2510.39737203 Ry
     estimated scf accuracy    <       0.00015718 Ry

     total magnetization       =    -0.01 Bohr mag/cell
     absolute magnetization    =     0.03 Bohr mag/cell

     iteration # 16     ecut=    90.00 Ry     beta= 0.20
     Davidson diagonalization with overlap
     ethr =  2.85E-08,  avg # of iterations =  1.0

     total cpu time spent up to now is      769.9 secs

     total energy              =   -2510.39737527 Ry
     estimated scf accuracy    <       0.00002497 Ry

     total magnetization       =    -0.01 Bohr mag/cell
     absolute magnetization    =     0.04 Bohr mag/cell

     iteration # 17     ecut=    90.00 Ry     beta= 0.20
     Davidson diagonalization with overlap
     ethr =  1.89E-08,  avg # of iterations =  1.0

     total cpu time spent up to now is      808.9 secs

     total energy              =   -2510.39737612 Ry
     estimated scf accuracy    <       0.00001545 Ry

     total magnetization       =    -0.01 Bohr mag/cell
     absolute magnetization    =     0.05 Bohr mag/cell

     iteration # 18     ecut=    90.00 Ry     beta= 0.20
     Davidson diagonalization with overlap
     ethr =  1.17E-08,  avg # of iterations =  1.0

     total cpu time spent up to now is      847.8 secs

     total energy              =   -2510.39737676 Ry
     estimated scf accuracy    <       0.00001697 Ry

     total magnetization       =    -0.01 Bohr mag/cell
     absolute magnetization    =     0.05 Bohr mag/cell

     iteration # 19     ecut=    90.00 Ry     beta= 0.20
     Davidson diagonalization with overlap
     ethr =  1.17E-08,  avg # of iterations =  1.0

     total cpu time spent up to now is      886.7 secs

     total energy              =   -2510.39737502 Ry
     estimated scf accuracy    <       0.00000880 Ry

     total magnetization       =    -0.01 Bohr mag/cell
     absolute magnetization    =     0.05 Bohr mag/cell

     iteration # 20     ecut=    90.00 Ry     beta= 0.20
     Davidson diagonalization with overlap
     ethr =  6.67E-09,  avg # of iterations =  1.0

     total cpu time spent up to now is      925.6 secs

     total energy              =   -2510.39737503 Ry
     estimated scf accuracy    <       0.00004173 Ry

     total magnetization       =    -0.01 Bohr mag/cell
     absolute magnetization    =     0.04 Bohr mag/cell

     iteration # 21     ecut=    90.00 Ry     beta= 0.20
     Davidson diagonalization with overlap
     ethr =  6.67E-09,  avg # of iterations =  1.0

     total cpu time spent up to now is      964.5 secs

     total energy              =   -2510.39737579 Ry
     estimated scf accuracy    <       0.00003398 Ry

     total magnetization       =    -0.01 Bohr mag/cell
     absolute magnetization    =     0.04 Bohr mag/cell

     iteration # 22     ecut=    90.00 Ry     beta= 0.20
     Davidson diagonalization with overlap
     ethr =  6.67E-09,  avg # of iterations =  1.0

     total cpu time spent up to now is     1003.5 secs

     total energy              =   -2510.39737208 Ry
     estimated scf accuracy    <       0.00007110 Ry

     total magnetization       =    -0.01 Bohr mag/cell
     absolute magnetization    =     0.05 Bohr mag/cell

     iteration # 23     ecut=    90.00 Ry     beta= 0.20
     Davidson diagonalization with overlap
     ethr =  6.67E-09,  avg # of iterations =  1.0

     total cpu time spent up to now is     1042.5 secs

     total energy              =   -2510.39737195 Ry
     estimated scf accuracy    <       0.00000800 Ry

     total magnetization       =    -0.01 Bohr mag/cell
     absolute magnetization    =     0.03 Bohr mag/cell

     iteration # 24     ecut=    90.00 Ry     beta= 0.20
     Davidson diagonalization with overlap
     ethr =  6.06E-09,  avg # of iterations =  1.0

     total cpu time spent up to now is     1081.5 secs

     total energy              =   -2510.39737268 Ry
     estimated scf accuracy    <       0.00000773 Ry

     total magnetization       =    -0.01 Bohr mag/cell
     absolute magnetization    =     0.01 Bohr mag/cell

     iteration # 25     ecut=    90.00 Ry     beta= 0.20
     Davidson diagonalization with overlap
     ethr =  5.86E-09,  avg # of iterations =  1.0

     total cpu time spent up to now is     1120.4 secs

     total energy              =   -2510.39737248 Ry
     estimated scf accuracy    <       0.00001484 Ry

     total magnetization       =    -0.01 Bohr mag/cell
     absolute magnetization    =     0.01 Bohr mag/cell

     iteration # 26     ecut=    90.00 Ry     beta= 0.20
     Davidson diagonalization with overlap
     ethr =  5.86E-09,  avg # of iterations =  1.0

     total cpu time spent up to now is     1159.3 secs

     total energy              =   -2510.39737210 Ry
     estimated scf accuracy    <       0.00003649 Ry

     total magnetization       =    -0.01 Bohr mag/cell
     absolute magnetization    =     0.01 Bohr mag/cell

     iteration # 27     ecut=    90.00 Ry     beta= 0.20
     Davidson diagonalization with overlap
     ethr =  5.86E-09,  avg # of iterations =  1.0

     total cpu time spent up to now is     1198.2 secs

     total energy              =   -2510.39737267 Ry
     estimated scf accuracy    <       0.00000208 Ry

     total magnetization       =    -0.01 Bohr mag/cell
     absolute magnetization    =     0.01 Bohr mag/cell

     iteration # 28     ecut=    90.00 Ry     beta= 0.20
     Davidson diagonalization with overlap
     ethr =  1.57E-09,  avg # of iterations =  1.0

     total cpu time spent up to now is     1237.1 secs

     total energy              =   -2510.39737246 Ry
     estimated scf accuracy    <       0.00000931 Ry

     total magnetization       =    -0.01 Bohr mag/cell
     absolute magnetization    =     0.01 Bohr mag/cell

     iteration # 29     ecut=    90.00 Ry     beta= 0.20
     Davidson diagonalization with overlap
     ethr =  1.57E-09,  avg # of iterations =  1.0

     total cpu time spent up to now is     1275.9 secs

     total energy              =   -2510.39737262 Ry
     estimated scf accuracy    <       0.00000235 Ry

     total magnetization       =    -0.01 Bohr mag/cell
     absolute magnetization    =     0.01 Bohr mag/cell

     iteration # 30     ecut=    90.00 Ry     beta= 0.20
     Davidson diagonalization with overlap
     ethr =  1.57E-09,  avg # of iterations =  1.1

     total cpu time spent up to now is     1315.1 secs

     total energy              =   -2510.39737251 Ry
     estimated scf accuracy    <       0.00001250 Ry

     total magnetization       =    -0.01 Bohr mag/cell
     absolute magnetization    =     0.01 Bohr mag/cell

     iteration # 31     ecut=    90.00 Ry     beta= 0.20
     Davidson diagonalization with overlap
     ethr =  1.57E-09,  avg # of iterations =  1.0

     total cpu time spent up to now is     1354.0 secs

     total energy              =   -2510.39737261 Ry
     estimated scf accuracy    <       0.00000339 Ry

     total magnetization       =    -0.01 Bohr mag/cell
     absolute magnetization    =     0.01 Bohr mag/cell

     iteration # 32     ecut=    90.00 Ry     beta= 0.20
     Davidson diagonalization with overlap
     ethr =  1.57E-09,  avg # of iterations =  1.1

     total cpu time spent up to now is     1393.1 secs

     total energy              =   -2510.39737262 Ry
     estimated scf accuracy    <       0.00000661 Ry

     total magnetization       =    -0.01 Bohr mag/cell
     absolute magnetization    =     0.01 Bohr mag/cell

     iteration # 33     ecut=    90.00 Ry     beta= 0.20
     Davidson diagonalization with overlap
     ethr =  1.57E-09,  avg # of iterations =  1.0

     total cpu time spent up to now is     1432.0 secs

     total energy              =   -2510.39737282 Ry
     estimated scf accuracy    <       0.00000044 Ry

     total magnetization       =    -0.01 Bohr mag/cell
     absolute magnetization    =     0.01 Bohr mag/cell

     iteration # 34     ecut=    90.00 Ry     beta= 0.20
     Davidson diagonalization with overlap
     ethr =  3.30E-10,  avg # of iterations =  1.0

     total cpu time spent up to now is     1470.9 secs

     total energy              =   -2510.39737283 Ry
     estimated scf accuracy    <       0.00000040 Ry

     total magnetization       =    -0.01 Bohr mag/cell
     absolute magnetization    =     0.01 Bohr mag/cell

     iteration # 35     ecut=    90.00 Ry     beta= 0.20
     Davidson diagonalization with overlap
     ethr =  3.04E-10,  avg # of iterations =  1.0

     total cpu time spent up to now is     1509.8 secs

     total energy              =   -2510.39737284 Ry
     estimated scf accuracy    <       0.00000059 Ry

     total magnetization       =    -0.01 Bohr mag/cell
     absolute magnetization    =     0.01 Bohr mag/cell

     iteration # 36     ecut=    90.00 Ry     beta= 0.20
     Davidson diagonalization with overlap
     ethr =  3.04E-10,  avg # of iterations =  1.0

     total cpu time spent up to now is     1548.7 secs

     total energy              =   -2510.39737284 Ry
     estimated scf accuracy    <       0.00000128 Ry

     total magnetization       =    -0.01 Bohr mag/cell
     absolute magnetization    =     0.01 Bohr mag/cell

     iteration # 37     ecut=    90.00 Ry     beta= 0.20
     Davidson diagonalization with overlap
     ethr =  3.04E-10,  avg # of iterations =  1.0

     total cpu time spent up to now is     1587.5 secs

     total energy              =   -2510.39737286 Ry
     estimated scf accuracy    <       0.00000043 Ry

     total magnetization       =    -0.01 Bohr mag/cell
     absolute magnetization    =     0.01 Bohr mag/cell

     iteration # 38     ecut=    90.00 Ry     beta= 0.20
     Davidson diagonalization with overlap
     ethr =  3.04E-10,  avg # of iterations =  1.0

     total cpu time spent up to now is     1626.4 secs

     total energy              =   -2510.39737286 Ry
     estimated scf accuracy    <       0.00000043 Ry

     total magnetization       =    -0.01 Bohr mag/cell
     absolute magnetization    =     0.01 Bohr mag/cell

     iteration # 39     ecut=    90.00 Ry     beta= 0.20
     Davidson diagonalization with overlap
     ethr =  3.04E-10,  avg # of iterations =  1.0

     total cpu time spent up to now is     1665.3 secs

     total energy              =   -2510.39737287 Ry
     estimated scf accuracy    <       0.00000042 Ry

     total magnetization       =    -0.01 Bohr mag/cell
     absolute magnetization    =     0.01 Bohr mag/cell

     iteration # 40     ecut=    90.00 Ry     beta= 0.20
     Davidson diagonalization with overlap
     ethr =  3.04E-10,  avg # of iterations =  1.0

     total cpu time spent up to now is     1704.3 secs

     total energy              =   -2510.39737287 Ry
     estimated scf accuracy    <       0.00000063 Ry

     total magnetization       =    -0.01 Bohr mag/cell
     absolute magnetization    =     0.01 Bohr mag/cell

     iteration # 41     ecut=    90.00 Ry     beta= 0.20
     Davidson diagonalization with overlap
     ethr =  3.04E-10,  avg # of iterations =  1.0

     total cpu time spent up to now is     1743.1 secs

     total energy              =   -2510.39737290 Ry
     estimated scf accuracy    <       0.00000049 Ry

     total magnetization       =    -0.01 Bohr mag/cell
     absolute magnetization    =     0.01 Bohr mag/cell

     iteration # 42     ecut=    90.00 Ry     beta= 0.20
     Davidson diagonalization with overlap
     ethr =  3.04E-10,  avg # of iterations =  1.0

     total cpu time spent up to now is     1782.0 secs

     total energy              =   -2510.39737288 Ry
     estimated scf accuracy    <       0.00000144 Ry

     total magnetization       =    -0.01 Bohr mag/cell
     absolute magnetization    =     0.01 Bohr mag/cell

     iteration # 43     ecut=    90.00 Ry     beta= 0.20
     Davidson diagonalization with overlap
     ethr =  3.04E-10,  avg # of iterations =  1.0

     total cpu time spent up to now is     1820.8 secs

     total energy              =   -2510.39737280 Ry
     estimated scf accuracy    <       0.00000054 Ry

     total magnetization       =    -0.01 Bohr mag/cell
     absolute magnetization    =     0.01 Bohr mag/cell

     iteration # 44     ecut=    90.00 Ry     beta= 0.20
     Davidson diagonalization with overlap
     ethr =  3.04E-10,  avg # of iterations =  1.0

     total cpu time spent up to now is     1859.7 secs

     total energy              =   -2510.39737269 Ry
     estimated scf accuracy    <       0.00000052 Ry

     total magnetization       =    -0.01 Bohr mag/cell
     absolute magnetization    =     0.01 Bohr mag/cell

     iteration # 45     ecut=    90.00 Ry     beta= 0.20
     Davidson diagonalization with overlap
     ethr =  3.04E-10,  avg # of iterations =  1.0

     total cpu time spent up to now is     1898.6 secs

     total energy              =   -2510.39737268 Ry
     estimated scf accuracy    <       0.00000056 Ry

     total magnetization       =    -0.00 Bohr mag/cell
     absolute magnetization    =     0.01 Bohr mag/cell

     iteration # 46     ecut=    90.00 Ry     beta= 0.20
     Davidson diagonalization with overlap
     ethr =  3.04E-10,  avg # of iterations =  1.0

     total cpu time spent up to now is     1937.5 secs

     total energy              =   -2510.39737265 Ry
     estimated scf accuracy    <       0.00000160 Ry

     total magnetization       =    -0.00 Bohr mag/cell
     absolute magnetization    =     0.01 Bohr mag/cell

     iteration # 47     ecut=    90.00 Ry     beta= 0.20
     Davidson diagonalization with overlap
     ethr =  3.04E-10,  avg # of iterations =  1.0

     total cpu time spent up to now is     1976.4 secs

     total energy              =   -2510.39737268 Ry
     estimated scf accuracy    <       0.00000095 Ry

     total magnetization       =    -0.00 Bohr mag/cell
     absolute magnetization    =     0.01 Bohr mag/cell

     iteration # 48     ecut=    90.00 Ry     beta= 0.20
     Davidson diagonalization with overlap
     ethr =  3.04E-10,  avg # of iterations =  1.0

     total cpu time spent up to now is     2015.3 secs

     total energy              =   -2510.39737261 Ry
     estimated scf accuracy    <       0.00000108 Ry

     total magnetization       =    -0.00 Bohr mag/cell
     absolute magnetization    =     0.00 Bohr mag/cell

     iteration # 49     ecut=    90.00 Ry     beta= 0.20
     Davidson diagonalization with overlap
     ethr =  3.04E-10,  avg # of iterations =  1.0

     total cpu time spent up to now is     2054.3 secs

     total energy              =   -2510.39737261 Ry
     estimated scf accuracy    <       0.00000181 Ry

     total magnetization       =    -0.00 Bohr mag/cell
     absolute magnetization    =     0.01 Bohr mag/cell

     iteration # 50     ecut=    90.00 Ry     beta= 0.20
     Davidson diagonalization with overlap
     ethr =  3.04E-10,  avg # of iterations =  1.0

     total cpu time spent up to now is     2093.2 secs

     total energy              =   -2510.39737266 Ry
     estimated scf accuracy    <       0.00000166 Ry

     total magnetization       =    -0.00 Bohr mag/cell
     absolute magnetization    =     0.00 Bohr mag/cell

     iteration # 51     ecut=    90.00 Ry     beta= 0.20
     Davidson diagonalization with overlap
     ethr =  3.04E-10,  avg # of iterations =  1.0

     total cpu time spent up to now is     2132.1 secs

     total energy              =   -2510.39737270 Ry
     estimated scf accuracy    <       0.00000072 Ry

     total magnetization       =    -0.00 Bohr mag/cell
     absolute magnetization    =     0.00 Bohr mag/cell

     iteration # 52     ecut=    90.00 Ry     beta= 0.20
     Davidson diagonalization with overlap
     ethr =  3.04E-10,  avg # of iterations =  1.0

     total cpu time spent up to now is     2171.0 secs

     total energy              =   -2510.39737268 Ry
     estimated scf accuracy    <       0.00000145 Ry

     total magnetization       =    -0.00 Bohr mag/cell
     absolute magnetization    =     0.01 Bohr mag/cell

     iteration # 53     ecut=    90.00 Ry     beta= 0.20
     Davidson diagonalization with overlap
     ethr =  3.04E-10,  avg # of iterations =  1.0

     total cpu time spent up to now is     2209.8 secs

     total energy              =   -2510.39737272 Ry
     estimated scf accuracy    <       0.00000008 Ry

     total magnetization       =    -0.00 Bohr mag/cell
     absolute magnetization    =     0.01 Bohr mag/cell

     iteration # 54     ecut=    90.00 Ry     beta= 0.20
     Davidson diagonalization with overlap
     ethr =  5.99E-11,  avg # of iterations =  1.0

     total cpu time spent up to now is     2248.7 secs

     total energy              =   -2510.39737273 Ry
     estimated scf accuracy    <       0.00000004 Ry

     total magnetization       =    -0.00 Bohr mag/cell
     absolute magnetization    =     0.01 Bohr mag/cell

     iteration # 55     ecut=    90.00 Ry     beta= 0.20
     Davidson diagonalization with overlap
     ethr =  3.24E-11,  avg # of iterations =  1.0

     total cpu time spent up to now is     2287.5 secs

     total energy              =   -2510.39737273 Ry
     estimated scf accuracy    <       0.00000004 Ry

     total magnetization       =    -0.00 Bohr mag/cell
     absolute magnetization    =     0.01 Bohr mag/cell

     iteration # 56     ecut=    90.00 Ry     beta= 0.20
     Davidson diagonalization with overlap
     ethr =  2.97E-11,  avg # of iterations =  1.0

     total cpu time spent up to now is     2326.3 secs

     total energy              =   -2510.39737273 Ry
     estimated scf accuracy    <       0.00000005 Ry

     total magnetization       =    -0.00 Bohr mag/cell
     absolute magnetization    =     0.01 Bohr mag/cell

     iteration # 57     ecut=    90.00 Ry     beta= 0.20
     Davidson diagonalization with overlap
     ethr =  2.97E-11,  avg # of iterations =  1.0

     total cpu time spent up to now is     2365.2 secs

     total energy              =   -2510.39737273 Ry
     estimated scf accuracy    <       0.00000004 Ry

     total magnetization       =    -0.00 Bohr mag/cell
     absolute magnetization    =     0.01 Bohr mag/cell

     iteration # 58     ecut=    90.00 Ry     beta= 0.20
     Davidson diagonalization with overlap
     ethr =  2.93E-11,  avg # of iterations =  1.0

     total cpu time spent up to now is     2404.1 secs

     total energy              =   -2510.39737273 Ry
     estimated scf accuracy    <       0.00000004 Ry

     total magnetization       =    -0.00 Bohr mag/cell
     absolute magnetization    =     0.01 Bohr mag/cell

     iteration # 59     ecut=    90.00 Ry     beta= 0.20
     Davidson diagonalization with overlap
     ethr =  2.93E-11,  avg # of iterations =  1.0

     total cpu time spent up to now is     2442.9 secs

     total energy              =   -2510.39737273 Ry
     estimated scf accuracy    <       0.00000006 Ry

     total magnetization       =    -0.00 Bohr mag/cell
     absolute magnetization    =     0.01 Bohr mag/cell

     iteration # 60     ecut=    90.00 Ry     beta= 0.20
     Davidson diagonalization with overlap
     ethr =  2.93E-11,  avg # of iterations =  1.0

     total cpu time spent up to now is     2482.3 secs

     total energy              =   -2510.39737273 Ry
     estimated scf accuracy    <       0.00000022 Ry

     total magnetization       =    -0.00 Bohr mag/cell
     absolute magnetization    =     0.01 Bohr mag/cell

     iteration # 61     ecut=    90.00 Ry     beta= 0.20
     Davidson diagonalization with overlap
     ethr =  2.93E-11,  avg # of iterations =  1.0

     total cpu time spent up to now is     2521.8 secs

     total energy              =   -2510.39737271 Ry
     estimated scf accuracy    <       0.00000022 Ry

     total magnetization       =    -0.00 Bohr mag/cell
     absolute magnetization    =     0.01 Bohr mag/cell

     iteration # 62     ecut=    90.00 Ry     beta= 0.20
     Davidson diagonalization with overlap
     ethr =  2.93E-11,  avg # of iterations =  1.1

     total cpu time spent up to now is     2561.6 secs

     total energy              =   -2510.39737272 Ry
     estimated scf accuracy    <       0.00000004 Ry

     total magnetization       =    -0.00 Bohr mag/cell
     absolute magnetization    =     0.01 Bohr mag/cell

     iteration # 63     ecut=    90.00 Ry     beta= 0.20
     Davidson diagonalization with overlap
     ethr =  2.93E-11,  avg # of iterations =  1.0

     total cpu time spent up to now is     2601.2 secs

     total energy              =   -2510.39737272 Ry
     estimated scf accuracy    <       0.00000012 Ry

     total magnetization       =    -0.00 Bohr mag/cell
     absolute magnetization    =     0.01 Bohr mag/cell

     iteration # 64     ecut=    90.00 Ry     beta= 0.20
     Davidson diagonalization with overlap
     ethr =  2.93E-11,  avg # of iterations =  1.0

     total cpu time spent up to now is     2640.6 secs

     total energy              =   -2510.39737272 Ry
     estimated scf accuracy    <       0.00000003 Ry

     total magnetization       =    -0.00 Bohr mag/cell
     absolute magnetization    =     0.00 Bohr mag/cell

     iteration # 65     ecut=    90.00 Ry     beta= 0.20
     Davidson diagonalization with overlap
     ethr =  2.34E-11,  avg # of iterations =  1.0

     Magnetic moment per site:
     atom:    1    charge:   13.9689    magn:    0.0002    constr:    0.0000
     atom:    2    charge:   15.1179    magn:    0.0010    constr:    0.0000
     atom:    3    charge:   13.9689    magn:   -0.0002    constr:    0.0000
     atom:    4    charge:   15.1179    magn:   -0.0003    constr:    0.0000
     atom:    5    charge:   13.9689    magn:    0.0000    constr:    0.0000
     atom:    6    charge:   15.1181    magn:   -0.0001    constr:    0.0000
     atom:    7    charge:   13.9688    magn:   -0.0001    constr:    0.0000
     atom:    8    charge:   15.1181    magn:   -0.0005    constr:    0.0000

     total cpu time spent up to now is     2680.9 secs

     End of self-consistent calculation

     Number of k-points >= 100: set verbosity='high' to print the bands.

     the Fermi energy is    17.0478 ev

!    total energy              =   -2510.39737272 Ry
     estimated scf accuracy    <          9.6E-09 Ry
     smearing contrib. (-TS)   =      -0.01676240 Ry
     internal energy E=F+TS    =   -2510.38061033 Ry

     The total energy is F=E-TS. E is the sum of the following terms:
     one-electron contribution =   -1160.60255210 Ry
     hartree contribution      =     659.71114643 Ry
     xc contribution           =    -269.45705155 Ry
     ewald contribution        =   -1435.43308438 Ry
     one-center paw contrib.   =    -304.59906873 Ry

     total magnetization       =     0.00 Bohr mag/cell
     absolute magnetization    =     0.00 Bohr mag/cell

     convergence has been achieved in  65 iterations

     Forces acting on atoms (cartesian axes, Ry/au):

     atom    1 type  1   force =     0.01911674   -0.00495504   -0.00582137
     atom    2 type  2   force =     0.02366560    0.00440629    0.00456878
     atom    3 type  1   force =     0.01911152   -0.00495396   -0.00582358
     atom    4 type  2   force =     0.02366328    0.00440550    0.00457005
     atom    5 type  1   force =    -0.01809069    0.00465994    0.00551948
     atom    6 type  2   force =    -0.02469568   -0.00411566   -0.00426961
     atom    7 type  1   force =    -0.01807626    0.00466642    0.00552728
     atom    8 type  2   force =    -0.02469452   -0.00411349   -0.00427102

     Total force =     0.064006     Total SCF correction =     0.000148


     Computing stress (Cartesian axis) and pressure

          total   stress  (Ry/bohr**3)                   (kbar)     P=      -11.67
   0.00003859  -0.00006784  -0.00007953            5.68       -9.98      -11.70
  -0.00006784  -0.00010689  -0.00000882           -9.98      -15.72       -1.30
  -0.00007953  -0.00000882  -0.00016960          -11.70       -1.30      -24.95


     BFGS Geometry Optimization
     Energy error            =      0.0E+00
     Gradient error          =      2.5E-02

     number of scf cycles    =   1
     number of bfgs steps    =   0

     energy   new            =   -2510.3973727211 Ry

     new trust radius        =       0.0253977302 bohr
     new conv_thr            =       0.0000000100 Ry


ATOMIC_POSITIONS (angstrom)
Fe            0.1201001013        2.2196345460       -0.0693829502
Co            2.3920398973        0.0045780078        2.2861005765
Fe            0.1201175355       -0.0570708589        2.2186905179
Co            2.3920263806        2.2812767027       -0.0019686585
Fe            2.1647950915        0.0423853199        0.0454884382
Co           -0.1004094757        2.2538499728        2.2608864515
Fe            2.1648086292        2.3190928465        2.3335983410
Co           -0.1004213490       -0.0228459433       -0.0272015707



     Writing output data file ./pwscf.save/
     NEW-OLD atomic charge density approx. for the potential

     Check: negative core charge=   -0.000012
     Generating pointlists ...

     total cpu time spent up to now is     2708.5 secs

     Self-consistent Calculation

     iteration #  1     ecut=    90.00 Ry     beta= 0.20
     Davidson diagonalization with overlap
     ethr =  1.00E-06,  avg # of iterations =  8.9

     total cpu time spent up to now is     2863.3 secs

     total energy              =   -2510.40150894 Ry
     estimated scf accuracy    <       0.00153650 Ry

     total magnetization       =    -0.00 Bohr mag/cell
     absolute magnetization    =     0.01 Bohr mag/cell

     iteration #  2     ecut=    90.00 Ry     beta= 0.20
     Davidson diagonalization with overlap
     ethr =  1.16E-06,  avg # of iterations =  2.2

     total cpu time spent up to now is     2913.0 secs

     total energy              =   -2510.40123085 Ry
     estimated scf accuracy    <       0.01396097 Ry

     total magnetization       =    -0.00 Bohr mag/cell
     absolute magnetization    =     0.01 Bohr mag/cell

     iteration #  3     ecut=    90.00 Ry     beta= 0.20
     Davidson diagonalization with overlap
     ethr =  1.16E-06,  avg # of iterations =  1.9

     total cpu time spent up to now is     2957.6 secs

     total energy              =   -2510.40168907 Ry
     estimated scf accuracy    <       0.00304702 Ry

     total magnetization       =    -0.00 Bohr mag/cell
     absolute magnetization    =     0.01 Bohr mag/cell

     iteration #  4     ecut=    90.00 Ry     beta= 0.20
     Davidson diagonalization with overlap
     ethr =  1.16E-06,  avg # of iterations =  1.0

     total cpu time spent up to now is     2997.0 secs

     total energy              =   -2510.40166441 Ry
     estimated scf accuracy    <       0.00234559 Ry

     total magnetization       =    -0.00 Bohr mag/cell
     absolute magnetization    =     0.01 Bohr mag/cell

     iteration #  5     ecut=    90.00 Ry     beta= 0.20
     Davidson diagonalization with overlap
     ethr =  1.16E-06,  avg # of iterations =  1.0

     total cpu time spent up to now is     3036.4 secs

     total energy              =   -2510.40169498 Ry
     estimated scf accuracy    <       0.00027368 Ry

     total magnetization       =    -0.00 Bohr mag/cell
     absolute magnetization    =     0.01 Bohr mag/cell

     iteration #  6     ecut=    90.00 Ry     beta= 0.20
     Davidson diagonalization with overlap
     ethr =  2.07E-07,  avg # of iterations =  1.0

     total cpu time spent up to now is     3075.8 secs

     total energy              =   -2510.40167019 Ry
     estimated scf accuracy    <       0.00003120 Ry

     total magnetization       =    -0.00 Bohr mag/cell
     absolute magnetization    =     0.01 Bohr mag/cell

     iteration #  7     ecut=    90.00 Ry     beta= 0.20
     Davidson diagonalization with overlap
     ethr =  2.36E-08,  avg # of iterations =  2.3

     total cpu time spent up to now is     3121.7 secs

     total energy              =   -2510.40163433 Ry
     estimated scf accuracy    <       0.00068730 Ry

     total magnetization       =    -0.00 Bohr mag/cell
     absolute magnetization    =     0.01 Bohr mag/cell

     iteration #  8     ecut=    90.00 Ry     beta= 0.20
     Davidson diagonalization with overlap
     ethr =  2.36E-08,  avg # of iterations =  1.3

     total cpu time spent up to now is     3162.5 secs

     total energy              =   -2510.40163949 Ry
     estimated scf accuracy    <       0.00000888 Ry

     total magnetization       =    -0.00 Bohr mag/cell
     absolute magnetization    =     0.01 Bohr mag/cell

     iteration #  9     ecut=    90.00 Ry     beta= 0.20
     Davidson diagonalization with overlap
     ethr =  6.73E-09,  avg # of iterations =  2.1

     total cpu time spent up to now is     3209.2 secs

     total energy              =   -2510.40163349 Ry
     estimated scf accuracy    <       0.00004448 Ry

     total magnetization       =    -0.00 Bohr mag/cell
     absolute magnetization    =     0.01 Bohr mag/cell

     iteration # 10     ecut=    90.00 Ry     beta= 0.20
     Davidson diagonalization with overlap
     ethr =  6.73E-09,  avg # of iterations =  1.5

     total cpu time spent up to now is     3251.6 secs

     total energy              =   -2510.40163481 Ry
     estimated scf accuracy    <       0.00000991 Ry

     total magnetization       =    -0.00 Bohr mag/cell
     absolute magnetization    =     0.01 Bohr mag/cell

     iteration # 11     ecut=    90.00 Ry     beta= 0.20
     Davidson diagonalization with overlap
     ethr =  6.73E-09,  avg # of iterations =  1.0

     total cpu time spent up to now is     3291.3 secs

     total energy              =   -2510.40163448 Ry
     estimated scf accuracy    <       0.00000302 Ry

     total magnetization       =    -0.00 Bohr mag/cell
     absolute magnetization    =     0.01 Bohr mag/cell

     iteration # 12     ecut=    90.00 Ry     beta= 0.20
     Davidson diagonalization with overlap
     ethr =  2.29E-09,  avg # of iterations =  1.0

     total cpu time spent up to now is     3331.2 secs

     total energy              =   -2510.40163434 Ry
     estimated scf accuracy    <       0.00000015 Ry

     total magnetization       =    -0.00 Bohr mag/cell
     absolute magnetization    =     0.01 Bohr mag/cell

     iteration # 13     ecut=    90.00 Ry     beta= 0.20
     Davidson diagonalization with overlap
     ethr =  1.13E-10,  avg # of iterations =  5.0

     total cpu time spent up to now is     3407.3 secs

     total energy              =   -2510.40163430 Ry
     estimated scf accuracy    <       0.00000077 Ry

     total magnetization       =    -0.00 Bohr mag/cell
     absolute magnetization    =     0.01 Bohr mag/cell

     iteration # 14     ecut=    90.00 Ry     beta= 0.20
     Davidson diagonalization with overlap
     ethr =  1.13E-10,  avg # of iterations =  1.0

     total cpu time spent up to now is     3447.0 secs

     total energy              =   -2510.40163428 Ry
     estimated scf accuracy    <       0.00000014 Ry

     total magnetization       =    -0.00 Bohr mag/cell
     absolute magnetization    =     0.01 Bohr mag/cell

     iteration # 15     ecut=    90.00 Ry     beta= 0.20
     Davidson diagonalization with overlap
     ethr =  1.04E-10,  avg # of iterations =  1.0

     total cpu time spent up to now is     3486.8 secs

     total energy              =   -2510.40163420 Ry
     estimated scf accuracy    <       0.00000097 Ry

     total magnetization       =    -0.00 Bohr mag/cell
     absolute magnetization    =     0.01 Bohr mag/cell

     iteration # 16     ecut=    90.00 Ry     beta= 0.20
     Davidson diagonalization with overlap
     ethr =  1.04E-10,  avg # of iterations =  1.0

     total cpu time spent up to now is     3526.5 secs

     total energy              =   -2510.40163422 Ry
     estimated scf accuracy    <       0.00000024 Ry

     total magnetization       =    -0.00 Bohr mag/cell
     absolute magnetization    =     0.01 Bohr mag/cell

     iteration # 17     ecut=    90.00 Ry     beta= 0.20
     Davidson diagonalization with overlap
     ethr =  1.04E-10,  avg # of iterations =  1.0

     total cpu time spent up to now is     3566.2 secs

     total energy              =   -2510.40163421 Ry
     estimated scf accuracy    <       0.00000010 Ry

     total magnetization       =    -0.00 Bohr mag/cell
     absolute magnetization    =     0.01 Bohr mag/cell

     iteration # 18     ecut=    90.00 Ry     beta= 0.20
     Davidson diagonalization with overlap
     ethr =  7.94E-11,  avg # of iterations =  1.0

     total cpu time spent up to now is     3605.9 secs

     total energy              =   -2510.40163422 Ry
     estimated scf accuracy    <       0.00000009 Ry

     total magnetization       =    -0.00 Bohr mag/cell
     absolute magnetization    =     0.01 Bohr mag/cell

     iteration # 19     ecut=    90.00 Ry     beta= 0.20
     Davidson diagonalization with overlap
     ethr =  6.88E-11,  avg # of iterations =  1.0

     total cpu time spent up to now is     3645.6 secs

     total energy              =   -2510.40163424 Ry
     estimated scf accuracy    <       0.00000009 Ry

     total magnetization       =    -0.00 Bohr mag/cell
     absolute magnetization    =     0.01 Bohr mag/cell

     iteration # 20     ecut=    90.00 Ry     beta= 0.20
     Davidson diagonalization with overlap
     ethr =  6.53E-11,  avg # of iterations =  1.0

     total cpu time spent up to now is     3685.3 secs

     total energy              =   -2510.40163424 Ry
     estimated scf accuracy    <       0.00000010 Ry

     total magnetization       =    -0.00 Bohr mag/cell
     absolute magnetization    =     0.01 Bohr mag/cell

     iteration # 21     ecut=    90.00 Ry     beta= 0.20
     Davidson diagonalization with overlap
     ethr =  6.53E-11,  avg # of iterations =  1.0

     total cpu time spent up to now is     3725.0 secs

     total energy              =   -2510.40163423 Ry
     estimated scf accuracy    <       0.00000010 Ry

     total magnetization       =    -0.00 Bohr mag/cell
     absolute magnetization    =     0.01 Bohr mag/cell

     iteration # 22     ecut=    90.00 Ry     beta= 0.20
     Davidson diagonalization with overlap
     ethr =  6.53E-11,  avg # of iterations =  1.0

     total cpu time spent up to now is     3764.7 secs

     total energy              =   -2510.40163424 Ry
     estimated scf accuracy    <       0.00000012 Ry

     total magnetization       =    -0.00 Bohr mag/cell
     absolute magnetization    =     0.01 Bohr mag/cell

     iteration # 23     ecut=    90.00 Ry     beta= 0.20
     Davidson diagonalization with overlap
     ethr =  6.53E-11,  avg # of iterations =  1.0

     total cpu time spent up to now is     3804.3 secs

     total energy              =   -2510.40163422 Ry
     estimated scf accuracy    <       0.00000014 Ry

     total magnetization       =    -0.00 Bohr mag/cell
     absolute magnetization    =     0.01 Bohr mag/cell

     iteration # 24     ecut=    90.00 Ry     beta= 0.20
     Davidson diagonalization with overlap
     ethr =  6.53E-11,  avg # of iterations =  1.0

     total cpu time spent up to now is     3844.0 secs

     total energy              =   -2510.40163422 Ry
     estimated scf accuracy    <       0.00000012 Ry

     total magnetization       =    -0.00 Bohr mag/cell
     absolute magnetization    =     0.01 Bohr mag/cell

     iteration # 25     ecut=    90.00 Ry     beta= 0.20
     Davidson diagonalization with overlap
     ethr =  6.53E-11,  avg # of iterations =  1.0

     total cpu time spent up to now is     3883.7 secs

     total energy              =   -2510.40163420 Ry
     estimated scf accuracy    <       0.00000020 Ry

     total magnetization       =    -0.00 Bohr mag/cell
     absolute magnetization    =     0.01 Bohr mag/cell

     iteration # 26     ecut=    90.00 Ry     beta= 0.20
     Davidson diagonalization with overlap
     ethr =  6.53E-11,  avg # of iterations =  1.0

     total cpu time spent up to now is     3923.4 secs

     total energy              =   -2510.40163419 Ry
     estimated scf accuracy    <       0.00000012 Ry

     total magnetization       =    -0.00 Bohr mag/cell
     absolute magnetization    =     0.01 Bohr mag/cell

     iteration # 27     ecut=    90.00 Ry     beta= 0.20
     Davidson diagonalization with overlap
     ethr =  6.53E-11,  avg # of iterations =  1.0

     total cpu time spent up to now is     3963.3 secs

     total energy              =   -2510.40163419 Ry
     estimated scf accuracy    <       0.00000043 Ry

     total magnetization       =    -0.00 Bohr mag/cell
     absolute magnetization    =     0.01 Bohr mag/cell

     iteration # 28     ecut=    90.00 Ry     beta= 0.20
     Davidson diagonalization with overlap
     ethr =  6.53E-11,  avg # of iterations =  1.0

     total cpu time spent up to now is     4003.0 secs

     total energy              =   -2510.40163418 Ry
     estimated scf accuracy    <       0.00000020 Ry

     total magnetization       =    -0.00 Bohr mag/cell
     absolute magnetization    =     0.01 Bohr mag/cell

     iteration # 29     ecut=    90.00 Ry     beta= 0.20
     Davidson diagonalization with overlap
     ethr =  6.53E-11,  avg # of iterations =  1.1

     total cpu time spent up to now is     4043.3 secs

     total energy              =   -2510.40163418 Ry
     estimated scf accuracy    <       0.00000049 Ry

     total magnetization       =    -0.00 Bohr mag/cell
     absolute magnetization    =     0.01 Bohr mag/cell

     iteration # 30     ecut=    90.00 Ry     beta= 0.20
     Davidson diagonalization with overlap
     ethr =  6.53E-11,  avg # of iterations =  1.0

     total cpu time spent up to now is     4083.0 secs

     total energy              =   -2510.40163418 Ry
     estimated scf accuracy    <       0.00000009 Ry

     total magnetization       =    -0.00 Bohr mag/cell
     absolute magnetization    =     0.01 Bohr mag/cell

     iteration # 31     ecut=    90.00 Ry     beta= 0.20
     Davidson diagonalization with overlap
     ethr =  6.53E-11,  avg # of iterations =  1.0

     total cpu time spent up to now is     4122.7 secs

     total energy              =   -2510.40163418 Ry
     estimated scf accuracy    <       0.00000009 Ry

     total magnetization       =    -0.00 Bohr mag/cell
     absolute magnetization    =     0.01 Bohr mag/cell

     iteration # 32     ecut=    90.00 Ry     beta= 0.20
     Davidson diagonalization with overlap
     ethr =  6.53E-11,  avg # of iterations =  1.0

     total cpu time spent up to now is     4162.4 secs

     total energy              =   -2510.40163417 Ry
     estimated scf accuracy    <       0.00000005 Ry

     total magnetization       =    -0.00 Bohr mag/cell
     absolute magnetization    =     0.01 Bohr mag/cell

     iteration # 33     ecut=    90.00 Ry     beta= 0.20
     Davidson diagonalization with overlap
     ethr =  4.07E-11,  avg # of iterations =  1.0

     total cpu time spent up to now is     4202.1 secs

     total energy              =   -2510.40163417 Ry
     estimated scf accuracy    <       0.00000005 Ry

     total magnetization       =    -0.00 Bohr mag/cell
     absolute magnetization    =     0.01 Bohr mag/cell

     iteration # 34     ecut=    90.00 Ry     beta= 0.20
     Davidson diagonalization with overlap
     ethr =  3.58E-11,  avg # of iterations =  1.0

     total cpu time spent up to now is     4241.7 secs

     total energy              =   -2510.40163417 Ry
     estimated scf accuracy    <       0.00000004 Ry

     total magnetization       =    -0.00 Bohr mag/cell
     absolute magnetization    =     0.01 Bohr mag/cell

     iteration # 35     ecut=    90.00 Ry     beta= 0.20
     Davidson diagonalization with overlap
     ethr =  2.95E-11,  avg # of iterations =  1.0

     total cpu time spent up to now is     4281.4 secs

     total energy              =   -2510.40163416 Ry
     estimated scf accuracy    <       0.00000004 Ry

     total magnetization       =    -0.00 Bohr mag/cell
     absolute magnetization    =     0.01 Bohr mag/cell

     iteration # 36     ecut=    90.00 Ry     beta= 0.20
     Davidson diagonalization with overlap
     ethr =  2.90E-11,  avg # of iterations =  1.0

     total cpu time spent up to now is     4321.1 secs

     total energy              =   -2510.40163416 Ry
     estimated scf accuracy    <       0.00000004 Ry

     total magnetization       =     0.00 Bohr mag/cell
     absolute magnetization    =     0.01 Bohr mag/cell

     iteration # 37     ecut=    90.00 Ry     beta= 0.20
     Davidson diagonalization with overlap
     ethr =  2.90E-11,  avg # of iterations =  1.0

     total cpu time spent up to now is     4360.8 secs

     total energy              =   -2510.40163416 Ry
     estimated scf accuracy    <       0.00000012 Ry

     total magnetization       =     0.00 Bohr mag/cell
     absolute magnetization    =     0.01 Bohr mag/cell

     iteration # 38     ecut=    90.00 Ry     beta= 0.20
     Davidson diagonalization with overlap
     ethr =  2.90E-11,  avg # of iterations =  1.0

     total cpu time spent up to now is     4400.5 secs

     total energy              =   -2510.40163414 Ry
     estimated scf accuracy    <       0.00000011 Ry

     total magnetization       =     0.00 Bohr mag/cell
     absolute magnetization    =     0.01 Bohr mag/cell

     iteration # 39     ecut=    90.00 Ry     beta= 0.20
     Davidson diagonalization with overlap
     ethr =  2.90E-11,  avg # of iterations =  1.0

     total cpu time spent up to now is     4440.3 secs

     total energy              =   -2510.40163415 Ry
     estimated scf accuracy    <       0.00000012 Ry

     total magnetization       =     0.00 Bohr mag/cell
     absolute magnetization    =     0.01 Bohr mag/cell

     iteration # 40     ecut=    90.00 Ry     beta= 0.20
     Davidson diagonalization with overlap
     ethr =  2.90E-11,  avg # of iterations =  1.0

     total cpu time spent up to now is     4480.0 secs

     total energy              =   -2510.40163415 Ry
     estimated scf accuracy    <       0.00000007 Ry

     total magnetization       =     0.00 Bohr mag/cell
     absolute magnetization    =     0.01 Bohr mag/cell

     iteration # 41     ecut=    90.00 Ry     beta= 0.20
     Davidson diagonalization with overlap
     ethr =  2.90E-11,  avg # of iterations =  1.0

     total cpu time spent up to now is     4519.7 secs

     total energy              =   -2510.40163415 Ry
     estimated scf accuracy    <       0.00000005 Ry

     total magnetization       =     0.00 Bohr mag/cell
     absolute magnetization    =     0.01 Bohr mag/cell

     iteration # 42     ecut=    90.00 Ry     beta= 0.20
     Davidson diagonalization with overlap
     ethr =  2.90E-11,  avg # of iterations =  1.0

     total cpu time spent up to now is     4559.3 secs

     total energy              =   -2510.40163415 Ry
     estimated scf accuracy    <       0.00000004 Ry

     total magnetization       =     0.00 Bohr mag/cell
     absolute magnetization    =     0.01 Bohr mag/cell

     iteration # 43     ecut=    90.00 Ry     beta= 0.20
     Davidson diagonalization with overlap
     ethr =  2.85E-11,  avg # of iterations =  1.0

     total cpu time spent up to now is     4599.0 secs

     total energy              =   -2510.40163415 Ry
     estimated scf accuracy    <       0.00000004 Ry

     total magnetization       =     0.00 Bohr mag/cell
     absolute magnetization    =     0.01 Bohr mag/cell

     iteration # 44     ecut=    90.00 Ry     beta= 0.20
     Davidson diagonalization with overlap
     ethr =  2.82E-11,  avg # of iterations =  1.0

     total cpu time spent up to now is     4638.6 secs

     total energy              =   -2510.40163415 Ry
     estimated scf accuracy    <       0.00000004 Ry

     total magnetization       =     0.00 Bohr mag/cell
     absolute magnetization    =     0.01 Bohr mag/cell

     iteration # 45     ecut=    90.00 Ry     beta= 0.20
     Davidson diagonalization with overlap
     ethr =  2.82E-11,  avg # of iterations =  1.0

     total cpu time spent up to now is     4678.3 secs

     total energy              =   -2510.40163415 Ry
     estimated scf accuracy    <       0.00000005 Ry

     total magnetization       =     0.00 Bohr mag/cell
     absolute magnetization    =     0.01 Bohr mag/cell

     iteration # 46     ecut=    90.00 Ry     beta= 0.20
     Davidson diagonalization with overlap
     ethr =  2.82E-11,  avg # of iterations =  1.0

     total cpu time spent up to now is     4717.9 secs

     total energy              =   -2510.40163415 Ry
     estimated scf accuracy    <       0.00000004 Ry

     total magnetization       =     0.00 Bohr mag/cell
     absolute magnetization    =     0.01 Bohr mag/cell

     iteration # 47     ecut=    90.00 Ry     beta= 0.20
     Davidson diagonalization with overlap
     ethr =  2.82E-11,  avg # of iterations =  1.0

     total cpu time spent up to now is     4757.6 secs

     total energy              =   -2510.40163415 Ry
     estimated scf accuracy    <       0.00000005 Ry

     total magnetization       =     0.00 Bohr mag/cell
     absolute magnetization    =     0.01 Bohr mag/cell

     iteration # 48     ecut=    90.00 Ry     beta= 0.20
     Davidson diagonalization with overlap
     ethr =  2.82E-11,  avg # of iterations =  1.0

     total cpu time spent up to now is     4797.3 secs

     total energy              =   -2510.40163415 Ry
     estimated scf accuracy    <       0.00000006 Ry

     total magnetization       =     0.00 Bohr mag/cell
     absolute magnetization    =     0.01 Bohr mag/cell

     iteration # 49     ecut=    90.00 Ry     beta= 0.20
     Davidson diagonalization with overlap
     ethr =  2.82E-11,  avg # of iterations =  1.0

     total cpu time spent up to now is     4837.0 secs

     total energy              =   -2510.40163415 Ry
     estimated scf accuracy    <       0.00000005 Ry

     total magnetization       =     0.00 Bohr mag/cell
     absolute magnetization    =     0.01 Bohr mag/cell

     iteration # 50     ecut=    90.00 Ry     beta= 0.20
     Davidson diagonalization with overlap
     ethr =  2.82E-11,  avg # of iterations =  1.0

     total cpu time spent up to now is     4876.6 secs

     total energy              =   -2510.40163415 Ry
     estimated scf accuracy    <       0.00000005 Ry

     total magnetization       =    -0.00 Bohr mag/cell
     absolute magnetization    =     0.01 Bohr mag/cell

     iteration # 51     ecut=    90.00 Ry     beta= 0.20
     Davidson diagonalization with overlap
     ethr =  2.82E-11,  avg # of iterations =  1.0

     total cpu time spent up to now is     4916.3 secs

     total energy              =   -2510.40163415 Ry
     estimated scf accuracy    <       0.00000005 Ry

     total magnetization       =     0.00 Bohr mag/cell
     absolute magnetization    =     0.01 Bohr mag/cell

     iteration # 52     ecut=    90.00 Ry     beta= 0.20
     Davidson diagonalization with overlap
     ethr =  2.82E-11,  avg # of iterations =  1.0

     total cpu time spent up to now is     4956.0 secs

     total energy              =   -2510.40163415 Ry
     estimated scf accuracy    <       0.00000004 Ry

     total magnetization       =    -0.00 Bohr mag/cell
     absolute magnetization    =     0.01 Bohr mag/cell

     iteration # 53     ecut=    90.00 Ry     beta= 0.20
     Davidson diagonalization with overlap
     ethr =  2.82E-11,  avg # of iterations =  1.0

     total cpu time spent up to now is     4995.6 secs

     total energy              =   -2510.40163415 Ry
     estimated scf accuracy    <       0.00000004 Ry

     total magnetization       =    -0.00 Bohr mag/cell
     absolute magnetization    =     0.01 Bohr mag/cell

     iteration # 54     ecut=    90.00 Ry     beta= 0.20
     Davidson diagonalization with overlap
     ethr =  2.82E-11,  avg # of iterations =  1.0

     total cpu time spent up to now is     5035.3 secs

     total energy              =   -2510.40163415 Ry
     estimated scf accuracy    <       0.00000005 Ry

     total magnetization       =    -0.00 Bohr mag/cell
     absolute magnetization    =     0.01 Bohr mag/cell

     iteration # 55     ecut=    90.00 Ry     beta= 0.20
     Davidson diagonalization with overlap
     ethr =  2.82E-11,  avg # of iterations =  1.0

     total cpu time spent up to now is     5074.9 secs

     total energy              =   -2510.40163415 Ry
     estimated scf accuracy    <       0.00000014 Ry

     total magnetization       =    -0.00 Bohr mag/cell
     absolute magnetization    =     0.01 Bohr mag/cell

     iteration # 56     ecut=    90.00 Ry     beta= 0.20
     Davidson diagonalization with overlap
     ethr =  2.82E-11,  avg # of iterations =  1.0

     total cpu time spent up to now is     5114.6 secs

     total energy              =   -2510.40163416 Ry
     estimated scf accuracy    <       0.00000005 Ry

     total magnetization       =    -0.00 Bohr mag/cell
     absolute magnetization    =     0.01 Bohr mag/cell

     iteration # 57     ecut=    90.00 Ry     beta= 0.20
     Davidson diagonalization with overlap
     ethr =  2.82E-11,  avg # of iterations =  1.0

     total cpu time spent up to now is     5154.2 secs

     total energy              =   -2510.40163416 Ry
     estimated scf accuracy    <       0.00000009 Ry

     total magnetization       =    -0.00 Bohr mag/cell
     absolute magnetization    =     0.01 Bohr mag/cell

     iteration # 58     ecut=    90.00 Ry     beta= 0.20
     Davidson diagonalization with overlap
     ethr =  2.82E-11,  avg # of iterations =  1.0

     total cpu time spent up to now is     5193.9 secs

     total energy              =   -2510.40163415 Ry
     estimated scf accuracy    <       0.00000007 Ry

     total magnetization       =    -0.00 Bohr mag/cell
     absolute magnetization    =     0.01 Bohr mag/cell

     iteration # 59     ecut=    90.00 Ry     beta= 0.20
     Davidson diagonalization with overlap
     ethr =  2.82E-11,  avg # of iterations =  1.0

     total cpu time spent up to now is     5233.6 secs

     total energy              =   -2510.40163415 Ry
     estimated scf accuracy    <       0.00000005 Ry

     total magnetization       =    -0.00 Bohr mag/cell
     absolute magnetization    =     0.01 Bohr mag/cell

     iteration # 60     ecut=    90.00 Ry     beta= 0.20
     Davidson diagonalization with overlap
     ethr =  2.82E-11,  avg # of iterations =  1.0

     total cpu time spent up to now is     5273.2 secs

     total energy              =   -2510.40163415 Ry
     estimated scf accuracy    <       0.00000005 Ry

     total magnetization       =    -0.00 Bohr mag/cell
     absolute magnetization    =     0.01 Bohr mag/cell

     iteration # 61     ecut=    90.00 Ry     beta= 0.20
     Davidson diagonalization with overlap
     ethr =  2.82E-11,  avg # of iterations =  1.0

     total cpu time spent up to now is     5312.9 secs

     total energy              =   -2510.40163415 Ry
     estimated scf accuracy    <       0.00000008 Ry

     total magnetization       =    -0.00 Bohr mag/cell
     absolute magnetization    =     0.01 Bohr mag/cell

     iteration # 62     ecut=    90.00 Ry     beta= 0.20
     Davidson diagonalization with overlap
     ethr =  2.82E-11,  avg # of iterations =  1.0

     total cpu time spent up to now is     5352.5 secs

     total energy              =   -2510.40163415 Ry
     estimated scf accuracy    <       0.00000005 Ry

     total magnetization       =    -0.00 Bohr mag/cell
     absolute magnetization    =     0.01 Bohr mag/cell

     iteration # 63     ecut=    90.00 Ry     beta= 0.20
     Davidson diagonalization with overlap
     ethr =  2.82E-11,  avg # of iterations =  1.0

     total cpu time spent up to now is     5392.2 secs

     total energy              =   -2510.40163414 Ry
     estimated scf accuracy    <       0.00000005 Ry

     total magnetization       =    -0.00 Bohr mag/cell
     absolute magnetization    =     0.01 Bohr mag/cell

     iteration # 64     ecut=    90.00 Ry     beta= 0.20
     Davidson diagonalization with overlap
     ethr =  2.82E-11,  avg # of iterations =  1.0

     total cpu time spent up to now is     5431.8 secs

     total energy              =   -2510.40163412 Ry
     estimated scf accuracy    <       0.00000006 Ry

     total magnetization       =    -0.00 Bohr mag/cell
     absolute magnetization    =     0.01 Bohr mag/cell

     iteration # 65     ecut=    90.00 Ry     beta= 0.20
     Davidson diagonalization with overlap
     ethr =  2.82E-11,  avg # of iterations =  1.0

     total cpu time spent up to now is     5471.5 secs

     total energy              =   -2510.40163413 Ry
     estimated scf accuracy    <       0.00000018 Ry

     total magnetization       =    -0.00 Bohr mag/cell
     absolute magnetization    =     0.01 Bohr mag/cell

     iteration # 66     ecut=    90.00 Ry     beta= 0.20
     Davidson diagonalization with overlap
     ethr =  2.82E-11,  avg # of iterations =  1.0

     total cpu time spent up to now is     5511.2 secs

     total energy              =   -2510.40163413 Ry
     estimated scf accuracy    <       0.00000004 Ry

     total magnetization       =    -0.00 Bohr mag/cell
     absolute magnetization    =     0.01 Bohr mag/cell

     iteration # 67     ecut=    90.00 Ry     beta= 0.20
     Davidson diagonalization with overlap
     ethr =  2.82E-11,  avg # of iterations =  1.0

     total cpu time spent up to now is     5550.9 secs

     total energy              =   -2510.40163413 Ry
     estimated scf accuracy    <       0.00000003 Ry

     total magnetization       =    -0.00 Bohr mag/cell
     absolute magnetization    =     0.01 Bohr mag/cell

     iteration # 68     ecut=    90.00 Ry     beta= 0.20
     Davidson diagonalization with overlap
     ethr =  1.96E-11,  avg # of iterations =  1.0

     total cpu time spent up to now is     5590.5 secs

     total energy              =   -2510.40163414 Ry
     estimated scf accuracy    <       0.00000003 Ry

     total magnetization       =    -0.00 Bohr mag/cell
     absolute magnetization    =     0.01 Bohr mag/cell

     iteration # 69     ecut=    90.00 Ry     beta= 0.20
     Davidson diagonalization with overlap
     ethr =  1.95E-11,  avg # of iterations =  1.0

     total cpu time spent up to now is     5630.1 secs

     total energy              =   -2510.40163414 Ry
     estimated scf accuracy    <       0.00000003 Ry

     total magnetization       =    -0.00 Bohr mag/cell
     absolute magnetization    =     0.01 Bohr mag/cell

     iteration # 70     ecut=    90.00 Ry     beta= 0.20
     Davidson diagonalization with overlap
     ethr =  1.95E-11,  avg # of iterations =  1.0

     total cpu time spent up to now is     5669.8 secs

     total energy              =   -2510.40163414 Ry
     estimated scf accuracy    <       0.00000004 Ry

     total magnetization       =    -0.00 Bohr mag/cell
     absolute magnetization    =     0.01 Bohr mag/cell

     iteration # 71     ecut=    90.00 Ry     beta= 0.20
     Davidson diagonalization with overlap
     ethr =  1.95E-11,  avg # of iterations =  1.0

     total cpu time spent up to now is     5709.4 secs

     total energy              =   -2510.40163414 Ry
     estimated scf accuracy    <       0.00000007 Ry

     total magnetization       =    -0.00 Bohr mag/cell
     absolute magnetization    =     0.01 Bohr mag/cell

     iteration # 72     ecut=    90.00 Ry     beta= 0.20
     Davidson diagonalization with overlap
     ethr =  1.95E-11,  avg # of iterations =  1.0

     total cpu time spent up to now is     5749.1 secs

     total energy              =   -2510.40163414 Ry
     estimated scf accuracy    <       0.00000005 Ry

     total magnetization       =    -0.00 Bohr mag/cell
     absolute magnetization    =     0.01 Bohr mag/cell

     iteration # 73     ecut=    90.00 Ry     beta= 0.20
     Davidson diagonalization with overlap
     ethr =  1.95E-11,  avg # of iterations =  1.0

     total cpu time spent up to now is     5788.7 secs

     total energy              =   -2510.40163414 Ry
     estimated scf accuracy    <       0.00000004 Ry

     total magnetization       =    -0.00 Bohr mag/cell
     absolute magnetization    =     0.01 Bohr mag/cell

     iteration # 74     ecut=    90.00 Ry     beta= 0.20
     Davidson diagonalization with overlap
     ethr =  1.95E-11,  avg # of iterations =  1.0

     total cpu time spent up to now is     5828.3 secs

     total energy              =   -2510.40163414 Ry
     estimated scf accuracy    <       0.00000004 Ry

     total magnetization       =    -0.00 Bohr mag/cell
     absolute magnetization    =     0.01 Bohr mag/cell

     iteration # 75     ecut=    90.00 Ry     beta= 0.20
     Davidson diagonalization with overlap
     ethr =  1.95E-11,  avg # of iterations =  1.0

     total cpu time spent up to now is     5868.0 secs

     total energy              =   -2510.40163414 Ry
     estimated scf accuracy    <       0.00000004 Ry

     total magnetization       =    -0.00 Bohr mag/cell
     absolute magnetization    =     0.01 Bohr mag/cell

     iteration # 76     ecut=    90.00 Ry     beta= 0.20
     Davidson diagonalization with overlap
     ethr =  1.95E-11,  avg # of iterations =  1.0

     total cpu time spent up to now is     5907.6 secs

     total energy              =   -2510.40163414 Ry
     estimated scf accuracy    <       0.00000004 Ry

     total magnetization       =    -0.00 Bohr mag/cell
     absolute magnetization    =     0.01 Bohr mag/cell

     iteration # 77     ecut=    90.00 Ry     beta= 0.20
     Davidson diagonalization with overlap
     ethr =  1.95E-11,  avg # of iterations =  1.0

     total cpu time spent up to now is     5947.3 secs

     total energy              =   -2510.40163414 Ry
     estimated scf accuracy    <       0.00000004 Ry

     total magnetization       =    -0.00 Bohr mag/cell
     absolute magnetization    =     0.01 Bohr mag/cell

     iteration # 78     ecut=    90.00 Ry     beta= 0.20
     Davidson diagonalization with overlap
     ethr =  1.95E-11,  avg # of iterations =  1.0

     total cpu time spent up to now is     5986.9 secs

     total energy              =   -2510.40163414 Ry
     estimated scf accuracy    <       0.00000004 Ry

     total magnetization       =    -0.00 Bohr mag/cell
     absolute magnetization    =     0.01 Bohr mag/cell

     iteration # 79     ecut=    90.00 Ry     beta= 0.20
     Davidson diagonalization with overlap
     ethr =  1.95E-11,  avg # of iterations =  1.0

     total cpu time spent up to now is     6026.6 secs

     total energy              =   -2510.40163414 Ry
     estimated scf accuracy    <       0.00000004 Ry

     total magnetization       =    -0.00 Bohr mag/cell
     absolute magnetization    =     0.01 Bohr mag/cell

     iteration # 80     ecut=    90.00 Ry     beta= 0.20
     Davidson diagonalization with overlap
     ethr =  1.95E-11,  avg # of iterations =  1.0

     total cpu time spent up to now is     6066.2 secs

     total energy              =   -2510.40163414 Ry
     estimated scf accuracy    <       0.00000006 Ry

     total magnetization       =    -0.00 Bohr mag/cell
     absolute magnetization    =     0.01 Bohr mag/cell

     iteration # 81     ecut=    90.00 Ry     beta= 0.20
     Davidson diagonalization with overlap
     ethr =  1.95E-11,  avg # of iterations =  1.0

     total cpu time spent up to now is     6105.9 secs

     total energy              =   -2510.40163413 Ry
     estimated scf accuracy    <       0.00000012 Ry

     total magnetization       =    -0.00 Bohr mag/cell
     absolute magnetization    =     0.01 Bohr mag/cell

     iteration # 82     ecut=    90.00 Ry     beta= 0.20
     Davidson diagonalization with overlap
     ethr =  1.95E-11,  avg # of iterations =  1.0

     total cpu time spent up to now is     6145.6 secs

     total energy              =   -2510.40163413 Ry
     estimated scf accuracy    <       0.00000008 Ry

     total magnetization       =    -0.00 Bohr mag/cell
     absolute magnetization    =     0.01 Bohr mag/cell

     iteration # 83     ecut=    90.00 Ry     beta= 0.20
     Davidson diagonalization with overlap
     ethr =  1.95E-11,  avg # of iterations =  1.1

     total cpu time spent up to now is     6185.4 secs

     total energy              =   -2510.40163413 Ry
     estimated scf accuracy    <       0.00000010 Ry

     total magnetization       =    -0.00 Bohr mag/cell
     absolute magnetization    =     0.01 Bohr mag/cell

     iteration # 84     ecut=    90.00 Ry     beta= 0.20
     Davidson diagonalization with overlap
     ethr =  1.95E-11,  avg # of iterations =  1.0

     total cpu time spent up to now is     6225.1 secs

     total energy              =   -2510.40163413 Ry
     estimated scf accuracy    <       0.00000010 Ry

     total magnetization       =    -0.00 Bohr mag/cell
     absolute magnetization    =     0.01 Bohr mag/cell

     iteration # 85     ecut=    90.00 Ry     beta= 0.20
     Davidson diagonalization with overlap
     ethr =  1.95E-11,  avg # of iterations =  1.0

     total cpu time spent up to now is     6265.5 secs

     total energy              =   -2510.40163413 Ry
     estimated scf accuracy    <       0.00000004 Ry

     total magnetization       =    -0.00 Bohr mag/cell
     absolute magnetization    =     0.01 Bohr mag/cell

     iteration # 86     ecut=    90.00 Ry     beta= 0.20
     Davidson diagonalization with overlap
     ethr =  1.95E-11,  avg # of iterations =  1.0

     total cpu time spent up to now is     6305.1 secs

     total energy              =   -2510.40163413 Ry
     estimated scf accuracy    <       0.00000004 Ry

     total magnetization       =    -0.00 Bohr mag/cell
     absolute magnetization    =     0.01 Bohr mag/cell

     iteration # 87     ecut=    90.00 Ry     beta= 0.20
     Davidson diagonalization with overlap
     ethr =  1.95E-11,  avg # of iterations =  1.0

     total cpu time spent up to now is     6344.8 secs

     total energy              =   -2510.40163412 Ry
     estimated scf accuracy    <       0.00000026 Ry

     total magnetization       =    -0.00 Bohr mag/cell
     absolute magnetization    =     0.01 Bohr mag/cell

     iteration # 88     ecut=    90.00 Ry     beta= 0.20
     Davidson diagonalization with overlap
     ethr =  1.95E-11,  avg # of iterations =  1.0

     total cpu time spent up to now is     6384.4 secs

     total energy              =   -2510.40163413 Ry
     estimated scf accuracy    <       0.00000003 Ry

     total magnetization       =    -0.00 Bohr mag/cell
     absolute magnetization    =     0.01 Bohr mag/cell

     iteration # 89     ecut=    90.00 Ry     beta= 0.20
     Davidson diagonalization with overlap
     ethr =  1.90E-11,  avg # of iterations =  1.0

     total cpu time spent up to now is     6424.0 secs

     total energy              =   -2510.40163413 Ry
     estimated scf accuracy    <       0.00000003 Ry

     total magnetization       =    -0.00 Bohr mag/cell
     absolute magnetization    =     0.01 Bohr mag/cell

     iteration # 90     ecut=    90.00 Ry     beta= 0.20
     Davidson diagonalization with overlap
     ethr =  1.90E-11,  avg # of iterations =  1.0

     total cpu time spent up to now is     6463.5 secs

     total energy              =   -2510.40163413 Ry
     estimated scf accuracy    <       0.00000003 Ry

     total magnetization       =    -0.00 Bohr mag/cell
     absolute magnetization    =     0.01 Bohr mag/cell

     iteration # 91     ecut=    90.00 Ry     beta= 0.20
     Davidson diagonalization with overlap
     ethr =  1.90E-11,  avg # of iterations =  1.0

     total cpu time spent up to now is     6503.1 secs

     total energy              =   -2510.40163413 Ry
     estimated scf accuracy    <       0.00000003 Ry

     total magnetization       =    -0.00 Bohr mag/cell
     absolute magnetization    =     0.01 Bohr mag/cell

     iteration # 92     ecut=    90.00 Ry     beta= 0.20
     Davidson diagonalization with overlap
     ethr =  1.90E-11,  avg # of iterations =  1.0

     total cpu time spent up to now is     6542.7 secs

     total energy              =   -2510.40163413 Ry
     estimated scf accuracy    <       0.00000002 Ry

     total magnetization       =    -0.00 Bohr mag/cell
     absolute magnetization    =     0.01 Bohr mag/cell

     iteration # 93     ecut=    90.00 Ry     beta= 0.20
     Davidson diagonalization with overlap
     ethr =  1.65E-11,  avg # of iterations =  1.0

     total cpu time spent up to now is     6582.2 secs

     total energy              =   -2510.40163413 Ry
     estimated scf accuracy    <       0.00000003 Ry

     total magnetization       =    -0.00 Bohr mag/cell
     absolute magnetization    =     0.01 Bohr mag/cell

     iteration # 94     ecut=    90.00 Ry     beta= 0.20
     Davidson diagonalization with overlap
     ethr =  1.65E-11,  avg # of iterations =  1.0

     total cpu time spent up to now is     6621.8 secs

     total energy              =   -2510.40163413 Ry
     estimated scf accuracy    <       0.00000002 Ry

     total magnetization       =    -0.00 Bohr mag/cell
     absolute magnetization    =     0.01 Bohr mag/cell

     iteration # 95     ecut=    90.00 Ry     beta= 0.20
     Davidson diagonalization with overlap
     ethr =  1.65E-11,  avg # of iterations =  1.0

     total cpu time spent up to now is     6661.3 secs

     total energy              =   -2510.40163413 Ry
     estimated scf accuracy    <       0.00000002 Ry

     total magnetization       =    -0.00 Bohr mag/cell
     absolute magnetization    =     0.01 Bohr mag/cell

     iteration # 96     ecut=    90.00 Ry     beta= 0.20
     Davidson diagonalization with overlap
     ethr =  1.65E-11,  avg # of iterations =  1.0

     total cpu time spent up to now is     6700.9 secs

     total energy              =   -2510.40163413 Ry
     estimated scf accuracy    <       0.00000003 Ry

     total magnetization       =    -0.00 Bohr mag/cell
     absolute magnetization    =     0.01 Bohr mag/cell

     iteration # 97     ecut=    90.00 Ry     beta= 0.20
     Davidson diagonalization with overlap
     ethr =  1.65E-11,  avg # of iterations =  1.0

     total cpu time spent up to now is     6740.5 secs

     total energy              =   -2510.40163412 Ry
     estimated scf accuracy    <       0.00000011 Ry

     total magnetization       =    -0.00 Bohr mag/cell
     absolute magnetization    =     0.01 Bohr mag/cell

     iteration # 98     ecut=    90.00 Ry     beta= 0.20
     Davidson diagonalization with overlap
     ethr =  1.65E-11,  avg # of iterations =  1.0

     total cpu time spent up to now is     6780.0 secs

     total energy              =   -2510.40163413 Ry
     estimated scf accuracy    <       0.00000002 Ry

     total magnetization       =    -0.00 Bohr mag/cell
     absolute magnetization    =     0.01 Bohr mag/cell

     iteration # 99     ecut=    90.00 Ry     beta= 0.20
     Davidson diagonalization with overlap
     ethr =  1.40E-11,  avg # of iterations =  1.0

     total cpu time spent up to now is     6819.6 secs

     total energy              =   -2510.40163412 Ry
[...]
     estimated scf accuracy    <       0.00000006 Ry

     total magnetization       =     0.00 Bohr mag/cell
     absolute magnetization    =     0.01 Bohr mag/cell

     iteration # 24     ecut=    90.00 Ry     beta= 0.20
     Davidson diagonalization with overlap
     ethr =  4.87E-11,  avg # of iterations =  1.0

     total cpu time spent up to now is     9388.9 secs

     total energy              =   -2510.40658883 Ry
     estimated scf accuracy    <       0.00000021 Ry

     total magnetization       =     0.00 Bohr mag/cell
     absolute magnetization    =     0.01 Bohr mag/cell

     iteration # 25     ecut=    90.00 Ry     beta= 0.20
     Davidson diagonalization with overlap
     ethr =  4.87E-11,  avg # of iterations =  1.0

     total cpu time spent up to now is     9428.6 secs

     total energy              =   -2510.40658884 Ry
     estimated scf accuracy    <       0.00000032 Ry

     total magnetization       =     0.00 Bohr mag/cell
     absolute magnetization    =     0.01 Bohr mag/cell

     iteration # 26     ecut=    90.00 Ry     beta= 0.20
     Davidson diagonalization with overlap
     ethr =  4.87E-11,  avg # of iterations =  1.0

     total cpu time spent up to now is     9468.1 secs

     total energy              =   -2510.40658884 Ry
     estimated scf accuracy    <       0.00000007 Ry

     total magnetization       =     0.00 Bohr mag/cell
     absolute magnetization    =     0.01 Bohr mag/cell

     iteration # 27     ecut=    90.00 Ry     beta= 0.20
     Davidson diagonalization with overlap
     ethr =  4.87E-11,  avg # of iterations =  1.0

     total cpu time spent up to now is     9507.7 secs

     total energy              =   -2510.40658883 Ry
     estimated scf accuracy    <       0.00000007 Ry

     total magnetization       =     0.00 Bohr mag/cell
     absolute magnetization    =     0.01 Bohr mag/cell

     iteration # 28     ecut=    90.00 Ry     beta= 0.20
     Davidson diagonalization with overlap
     ethr =  4.87E-11,  avg # of iterations =  1.0

     total cpu time spent up to now is     9547.2 secs

     total energy              =   -2510.40658883 Ry
     estimated scf accuracy    <       0.00000005 Ry

     total magnetization       =     0.00 Bohr mag/cell
     absolute magnetization    =     0.01 Bohr mag/cell

     iteration # 29     ecut=    90.00 Ry     beta= 0.20
     Davidson diagonalization with overlap
     ethr =  4.08E-11,  avg # of iterations =  1.0

     total cpu time spent up to now is     9586.7 secs

     total energy              =   -2510.40658882 Ry
     estimated scf accuracy    <       0.00000005 Ry

     total magnetization       =     0.00 Bohr mag/cell
     absolute magnetization    =     0.01 Bohr mag/cell

     iteration # 30     ecut=    90.00 Ry     beta= 0.20
     Davidson diagonalization with overlap
     ethr =  3.45E-11,  avg # of iterations =  1.0

     total cpu time spent up to now is     9626.3 secs

     total energy              =   -2510.40658882 Ry
     estimated scf accuracy    <       0.00000005 Ry

     total magnetization       =     0.00 Bohr mag/cell
     absolute magnetization    =     0.01 Bohr mag/cell

     iteration # 31     ecut=    90.00 Ry     beta= 0.20
     Davidson diagonalization with overlap
     ethr =  3.45E-11,  avg # of iterations =  1.0

     total cpu time spent up to now is     9665.8 secs

     total energy              =   -2510.40658883 Ry
     estimated scf accuracy    <       0.00000005 Ry

     total magnetization       =     0.00 Bohr mag/cell
     absolute magnetization    =     0.01 Bohr mag/cell

     iteration # 32     ecut=    90.00 Ry     beta= 0.20
     Davidson diagonalization with overlap
     ethr =  3.45E-11,  avg # of iterations =  1.0

     total cpu time spent up to now is     9705.4 secs

     total energy              =   -2510.40658882 Ry
     estimated scf accuracy    <       0.00000005 Ry

     total magnetization       =     0.00 Bohr mag/cell
     absolute magnetization    =     0.01 Bohr mag/cell

     iteration # 33     ecut=    90.00 Ry     beta= 0.20
     Davidson diagonalization with overlap
     ethr =  3.45E-11,  avg # of iterations =  1.0

     total cpu time spent up to now is     9744.9 secs

     total energy              =   -2510.40658882 Ry
     estimated scf accuracy    <       0.00000005 Ry

     total magnetization       =     0.00 Bohr mag/cell
     absolute magnetization    =     0.01 Bohr mag/cell

     iteration # 34     ecut=    90.00 Ry     beta= 0.20
     Davidson diagonalization with overlap
     ethr =  3.45E-11,  avg # of iterations =  1.0

     total cpu time spent up to now is     9784.4 secs

     total energy              =   -2510.40658882 Ry
     estimated scf accuracy    <       0.00000005 Ry

     total magnetization       =     0.00 Bohr mag/cell
     absolute magnetization    =     0.01 Bohr mag/cell

     iteration # 35     ecut=    90.00 Ry     beta= 0.20
     Davidson diagonalization with overlap
     ethr =  3.45E-11,  avg # of iterations =  1.0

     total cpu time spent up to now is     9823.9 secs

     total energy              =   -2510.40658882 Ry
     estimated scf accuracy    <       0.00000006 Ry

     total magnetization       =     0.00 Bohr mag/cell
     absolute magnetization    =     0.01 Bohr mag/cell

     iteration # 36     ecut=    90.00 Ry     beta= 0.20
     Davidson diagonalization with overlap
     ethr =  3.45E-11,  avg # of iterations =  1.0

     total cpu time spent up to now is     9864.7 secs

     total energy              =   -2510.40658882 Ry
     estimated scf accuracy    <       0.00000006 Ry

     total magnetization       =     0.00 Bohr mag/cell
     absolute magnetization    =     0.01 Bohr mag/cell

     iteration # 37     ecut=    90.00 Ry     beta= 0.20
     Davidson diagonalization with overlap
     ethr =  3.45E-11,  avg # of iterations =  1.0

     total cpu time spent up to now is     9904.3 secs

     total energy              =   -2510.40658882 Ry
     estimated scf accuracy    <       0.00000008 Ry

     total magnetization       =     0.00 Bohr mag/cell
     absolute magnetization    =     0.01 Bohr mag/cell

     iteration # 38     ecut=    90.00 Ry     beta= 0.20
     Davidson diagonalization with overlap
     ethr =  3.45E-11,  avg # of iterations =  1.0

     total cpu time spent up to now is     9943.9 secs

     total energy              =   -2510.40658884 Ry
     estimated scf accuracy    <       0.00000007 Ry

     total magnetization       =     0.00 Bohr mag/cell
     absolute magnetization    =     0.01 Bohr mag/cell

     iteration # 39     ecut=    90.00 Ry     beta= 0.20
     Davidson diagonalization with overlap
     ethr =  3.45E-11,  avg # of iterations =  1.0

     total cpu time spent up to now is     9983.5 secs

     total energy              =   -2510.40658882 Ry
     estimated scf accuracy    <       0.00000004 Ry

     total magnetization       =     0.00 Bohr mag/cell
     absolute magnetization    =     0.01 Bohr mag/cell

     iteration # 40     ecut=    90.00 Ry     beta= 0.20
     Davidson diagonalization with overlap
     ethr =  3.16E-11,  avg # of iterations =  1.0

     total cpu time spent up to now is    10023.1 secs

     total energy              =   -2510.40658883 Ry
     estimated scf accuracy    <       0.00000006 Ry

     total magnetization       =     0.00 Bohr mag/cell
     absolute magnetization    =     0.01 Bohr mag/cell

     iteration # 41     ecut=    90.00 Ry     beta= 0.20
     Davidson diagonalization with overlap
     ethr =  3.16E-11,  avg # of iterations =  1.0

     total cpu time spent up to now is    10062.7 secs

     total energy              =   -2510.40658874 Ry
     estimated scf accuracy    <       0.00000008 Ry

     total magnetization       =     0.00 Bohr mag/cell
     absolute magnetization    =     0.01 Bohr mag/cell

     iteration # 42     ecut=    90.00 Ry     beta= 0.20
     Davidson diagonalization with overlap
     ethr =  3.16E-11,  avg # of iterations =  1.4

     total cpu time spent up to now is    10104.3 secs

     total energy              =   -2510.40658874 Ry
     estimated scf accuracy    <       0.00000013 Ry

     total magnetization       =    -0.00 Bohr mag/cell
     absolute magnetization    =     0.01 Bohr mag/cell

     iteration # 43     ecut=    90.00 Ry     beta= 0.20
     Davidson diagonalization with overlap
     ethr =  3.16E-11,  avg # of iterations =  1.0

     total cpu time spent up to now is    10143.9 secs

     total energy              =   -2510.40658873 Ry
     estimated scf accuracy    <       0.00000011 Ry

     total magnetization       =    -0.00 Bohr mag/cell
     absolute magnetization    =     0.01 Bohr mag/cell

     iteration # 44     ecut=    90.00 Ry     beta= 0.20
     Davidson diagonalization with overlap
     ethr =  3.16E-11,  avg # of iterations =  1.7

     total cpu time spent up to now is    10187.3 secs

     total energy              =   -2510.40658874 Ry
     estimated scf accuracy    <       0.00000005 Ry

     total magnetization       =    -0.00 Bohr mag/cell
     absolute magnetization    =     0.01 Bohr mag/cell

     iteration # 45     ecut=    90.00 Ry     beta= 0.20
     Davidson diagonalization with overlap
     ethr =  3.16E-11,  avg # of iterations =  1.0

     total cpu time spent up to now is    10226.9 secs

     total energy              =   -2510.40658874 Ry
     estimated scf accuracy    <       0.00000002 Ry

     total magnetization       =    -0.00 Bohr mag/cell
     absolute magnetization    =     0.01 Bohr mag/cell

     iteration # 46     ecut=    90.00 Ry     beta= 0.20
     Davidson diagonalization with overlap
     ethr =  1.73E-11,  avg # of iterations =  1.0

     total cpu time spent up to now is    10266.5 secs

     total energy              =   -2510.40658874 Ry
     estimated scf accuracy    <       0.00000002 Ry

     total magnetization       =    -0.00 Bohr mag/cell
     absolute magnetization    =     0.01 Bohr mag/cell

     iteration # 47     ecut=    90.00 Ry     beta= 0.20
     Davidson diagonalization with overlap
     ethr =  1.73E-11,  avg # of iterations =  1.0

     total cpu time spent up to now is    10306.0 secs

     total energy              =   -2510.40658874 Ry
     estimated scf accuracy    <       0.00000006 Ry

     total magnetization       =    -0.00 Bohr mag/cell
     absolute magnetization    =     0.01 Bohr mag/cell

     iteration # 48     ecut=    90.00 Ry     beta= 0.20
     Davidson diagonalization with overlap
     ethr =  1.73E-11,  avg # of iterations =  1.0

     total cpu time spent up to now is    10345.5 secs

     total energy              =   -2510.40658874 Ry
     estimated scf accuracy    <       0.00000003 Ry

     total magnetization       =    -0.00 Bohr mag/cell
     absolute magnetization    =     0.01 Bohr mag/cell

     iteration # 49     ecut=    90.00 Ry     beta= 0.20
     Davidson diagonalization with overlap
     ethr =  1.73E-11,  avg # of iterations =  1.0

     total cpu time spent up to now is    10385.1 secs

     total energy              =   -2510.40658874 Ry
     estimated scf accuracy    <       0.00000002 Ry

     total magnetization       =    -0.00 Bohr mag/cell
     absolute magnetization    =     0.01 Bohr mag/cell

     iteration # 50     ecut=    90.00 Ry     beta= 0.20
     Davidson diagonalization with overlap
     ethr =  1.50E-11,  avg # of iterations =  1.0

     total cpu time spent up to now is    10424.6 secs

     total energy              =   -2510.40658874 Ry
     estimated scf accuracy    <       0.00000005 Ry

     total magnetization       =    -0.00 Bohr mag/cell
     absolute magnetization    =     0.01 Bohr mag/cell

     iteration # 51     ecut=    90.00 Ry     beta= 0.20
     Davidson diagonalization with overlap
     ethr =  1.50E-11,  avg # of iterations =  1.0

     total cpu time spent up to now is    10464.2 secs

     total energy              =   -2510.40658874 Ry
     estimated scf accuracy    <       0.00000004 Ry

     total magnetization       =    -0.00 Bohr mag/cell
     absolute magnetization    =     0.01 Bohr mag/cell

     iteration # 52     ecut=    90.00 Ry     beta= 0.20
     Davidson diagonalization with overlap
     ethr =  1.50E-11,  avg # of iterations =  1.0

     total cpu time spent up to now is    10503.8 secs

     total energy              =   -2510.40658871 Ry
     estimated scf accuracy    <       0.00000002 Ry

     total magnetization       =    -0.00 Bohr mag/cell
     absolute magnetization    =     0.01 Bohr mag/cell

     iteration # 53     ecut=    90.00 Ry     beta= 0.20
     Davidson diagonalization with overlap
     ethr =  1.50E-11,  avg # of iterations =  2.0

     total cpu time spent up to now is    10550.8 secs

     total energy              =   -2510.40658873 Ry
     estimated scf accuracy    <       0.00000001 Ry

     total magnetization       =    -0.00 Bohr mag/cell
     absolute magnetization    =     0.00 Bohr mag/cell

     iteration # 54     ecut=    90.00 Ry     beta= 0.20
     Davidson diagonalization with overlap
     ethr =  1.01E-11,  avg # of iterations =  1.2

     total cpu time spent up to now is    10591.3 secs

     total energy              =   -2510.40658873 Ry
     estimated scf accuracy    <       0.00000007 Ry

     total magnetization       =    -0.00 Bohr mag/cell
     absolute magnetization    =     0.00 Bohr mag/cell

     iteration # 55     ecut=    90.00 Ry     beta= 0.20
     Davidson diagonalization with overlap
     ethr =  1.01E-11,  avg # of iterations =  1.0

     total cpu time spent up to now is    10630.9 secs

     total energy              =   -2510.40658873 Ry
     estimated scf accuracy    <       0.00000002 Ry

     total magnetization       =    -0.00 Bohr mag/cell
     absolute magnetization    =     0.00 Bohr mag/cell

     iteration # 56     ecut=    90.00 Ry     beta= 0.20
     Davidson diagonalization with overlap
     ethr =  1.01E-11,  avg # of iterations =  1.0

     total cpu time spent up to now is    10670.4 secs

     total energy              =   -2510.40658873 Ry
     estimated scf accuracy    <       0.00000005 Ry

     total magnetization       =    -0.00 Bohr mag/cell
     absolute magnetization    =     0.00 Bohr mag/cell

     iteration # 57     ecut=    90.00 Ry     beta= 0.20
     Davidson diagonalization with overlap
     ethr =  1.01E-11,  avg # of iterations =  1.0

     total cpu time spent up to now is    10710.0 secs

     total energy              =   -2510.40658873 Ry
     estimated scf accuracy    <       0.00000002 Ry

     total magnetization       =    -0.00 Bohr mag/cell
     absolute magnetization    =     0.00 Bohr mag/cell

     iteration # 58     ecut=    90.00 Ry     beta= 0.20
     Davidson diagonalization with overlap
     ethr =  1.01E-11,  avg # of iterations =  1.0

     total cpu time spent up to now is    10749.5 secs

     total energy              =   -2510.40658873 Ry
     estimated scf accuracy    <       0.00000002 Ry

     total magnetization       =    -0.00 Bohr mag/cell
     absolute magnetization    =     0.00 Bohr mag/cell

     iteration # 59     ecut=    90.00 Ry     beta= 0.20
     Davidson diagonalization with overlap
     ethr =  1.01E-11,  avg # of iterations =  1.0

     total cpu time spent up to now is    10789.1 secs

     total energy              =   -2510.40658873 Ry
     estimated scf accuracy    <       0.00000002 Ry

     total magnetization       =    -0.00 Bohr mag/cell
     absolute magnetization    =     0.00 Bohr mag/cell

     iteration # 60     ecut=    90.00 Ry     beta= 0.20
     Davidson diagonalization with overlap
     ethr =  1.01E-11,  avg # of iterations =  1.0

     total cpu time spent up to now is    10828.6 secs

     total energy              =   -2510.40658873 Ry
     estimated scf accuracy    <       0.00000002 Ry

     total magnetization       =    -0.00 Bohr mag/cell
     absolute magnetization    =     0.00 Bohr mag/cell

     iteration # 61     ecut=    90.00 Ry     beta= 0.20
     Davidson diagonalization with overlap
     ethr =  1.01E-11,  avg # of iterations =  1.0

     total cpu time spent up to now is    10868.2 secs

     total energy              =   -2510.40658873 Ry
     estimated scf accuracy    <       0.00000003 Ry

     total magnetization       =    -0.00 Bohr mag/cell
     absolute magnetization    =     0.00 Bohr mag/cell

     iteration # 62     ecut=    90.00 Ry     beta= 0.20
     Davidson diagonalization with overlap
     ethr =  1.01E-11,  avg # of iterations =  1.0

     total cpu time spent up to now is    10907.8 secs

     total energy              =   -2510.40658872 Ry
     estimated scf accuracy    <       0.00000002 Ry

     total magnetization       =    -0.00 Bohr mag/cell
     absolute magnetization    =     0.00 Bohr mag/cell

     iteration # 63     ecut=    90.00 Ry     beta= 0.20
     Davidson diagonalization with overlap
     ethr =  1.01E-11,  avg # of iterations =  1.7

     total cpu time spent up to now is    10951.4 secs

     total energy              =   -2510.40658873 Ry
     estimated scf accuracy    <       0.00000002 Ry

     total magnetization       =    -0.00 Bohr mag/cell
     absolute magnetization    =     0.00 Bohr mag/cell

     iteration # 64     ecut=    90.00 Ry     beta= 0.20
     Davidson diagonalization with overlap
     ethr =  1.01E-11,  avg # of iterations =  1.3

     total cpu time spent up to now is    10992.5 secs

     total energy              =   -2510.40658873 Ry
     estimated scf accuracy    <       0.00000001 Ry

     total magnetization       =    -0.00 Bohr mag/cell
     absolute magnetization    =     0.00 Bohr mag/cell

     iteration # 65     ecut=    90.00 Ry     beta= 0.20
     Davidson diagonalization with overlap
     ethr =  1.01E-11,  avg # of iterations =  1.0

     total cpu time spent up to now is    11032.1 secs

     total energy              =   -2510.40658873 Ry
     estimated scf accuracy    <       0.00000006 Ry

     total magnetization       =    -0.00 Bohr mag/cell
     absolute magnetization    =     0.00 Bohr mag/cell

     iteration # 66     ecut=    90.00 Ry     beta= 0.20
     Davidson diagonalization with overlap
     ethr =  1.01E-11,  avg # of iterations =  1.0

     total cpu time spent up to now is    11071.6 secs

     total energy              =   -2510.40658873 Ry
     estimated scf accuracy    <       0.00000002 Ry

     total magnetization       =    -0.00 Bohr mag/cell
     absolute magnetization    =     0.00 Bohr mag/cell

     iteration # 67     ecut=    90.00 Ry     beta= 0.20
     Davidson diagonalization with overlap
     ethr =  1.01E-11,  avg # of iterations =  1.0

     total cpu time spent up to now is    11111.2 secs

     total energy              =   -2510.40658873 Ry
     estimated scf accuracy    <       0.00000002 Ry

     total magnetization       =    -0.00 Bohr mag/cell
     absolute magnetization    =     0.00 Bohr mag/cell

     iteration # 68     ecut=    90.00 Ry     beta= 0.20
     Davidson diagonalization with overlap
     ethr =  1.01E-11,  avg # of iterations =  1.0

     total cpu time spent up to now is    11150.7 secs

     total energy              =   -2510.40658872 Ry
     estimated scf accuracy    <       0.00000007 Ry

     total magnetization       =    -0.00 Bohr mag/cell
     absolute magnetization    =     0.00 Bohr mag/cell

     iteration # 69     ecut=    90.00 Ry     beta= 0.20
     Davidson diagonalization with overlap
     ethr =  1.01E-11,  avg # of iterations =  1.2

     total cpu time spent up to now is    11191.1 secs

     total energy              =   -2510.40658872 Ry
     estimated scf accuracy    <       0.00000007 Ry

     total magnetization       =    -0.00 Bohr mag/cell
     absolute magnetization    =     0.00 Bohr mag/cell

     iteration # 70     ecut=    90.00 Ry     beta= 0.20
     Davidson diagonalization with overlap
