 # File generated with Atomsk by kevin on 2022-03-20 17:47:58
 
           8  atoms
           2  atom types
 
      0.000000000000       4.553400000000  xlo xhi
      0.000000000000       4.576167000000  ylo yhi
      0.000000000000       4.553400000000  zlo zhi
 
Masses
 
            1   58.93319500             # Co
            2   0.00000000              # XX
 
Atoms # atomic
 
         1    1       -0.003760218787       0.002987514962      -0.001578903008
         2    3        2.280324165917       2.285247434684       2.278054265618
         3    1       -0.003760218787       2.291071014962       2.275121096992
         4    3        2.280324165917      -0.002836065316       0.001354265618
         5    1        2.272939781213       2.291071014962      -0.001578903008
         6    3       -0.003760218787       0.002987514962       2.275121096992
         7    1        2.272939781213       0.002987514962       2.275121096992
         8    3       -0.003760218787       2.291071014962      -0.001578903008
