 # File generated with Atomsk by kevin on 2022-03-20 17:48:00
 
           8  atoms
           2  atom types
 
      0.000000000000       4.553400000000  xlo xhi
      0.000000000000       4.553400000000  ylo yhi
      0.000000000000       4.553400000000  zlo zhi
      0.022767000000       0.000000000000       0.000000000000  xy xz yz
 
Masses
 
            1   58.93319500             # Co
            2   0.00000000              # XX
 
Atoms # atomic
 
         1    1       -0.005084142717       0.001018892297       0.009766242739
         2    3        2.288410395910       2.282927891618       2.284456988725
         3    1        0.006299357283       2.277718892297       2.286466242739
         4    3        2.277026895910       0.006227891618       0.007756988725
         5    1        2.282999357283       2.277718892297       0.009766242739
         6    3       -0.005084142717       0.001018892297       2.286466242739
         7    1        2.271615857283       0.001018892297       2.286466242739
         8    3        0.006299357283       2.277718892297       0.009766242739
