 # File generated with Atomsk by kevin on 2022-03-20 17:47:59
 
           8  atoms
           2  atom types
 
      0.000000000000       4.553400000000  xlo xhi
      0.000000000000       4.553400000000  ylo yhi
      0.000000000000       4.576167000000  zlo zhi
 
Masses
 
            1   58.93319500             # Co
            2   0.00000000              # XX
 
Atoms # atomic
 
         1    1        0.006787936668      -0.008268062127      -0.008132774140
         2    3        2.279089242732       2.286610502288       2.291561938544
         3    1        0.006787936668       2.268431937873       2.279950725860
         4    3        2.279089242732       0.009910502288       0.003478438544
         5    1        2.283487936668       2.268431937873      -0.008132774140
         6    3        0.006787936668      -0.008268062127       2.279950725860
         7    1        2.283487936668      -0.008268062127       2.279950725860
         8    3        0.006787936668       2.268431937873      -0.008132774140
