
     Program PWSCF v.6.7MaX starts on 22Mar2022 at 11:21:29 

     This program is part of the open-source Quantum ESPRESSO suite
     for quantum simulation of materials; please cite
         "P. Giannozzi et al., J. Phys.:Condens. Matter 21 395502 (2009);
         "P. Giannozzi et al., J. Phys.:Condens. Matter 29 465901 (2017);
          URL http://www.quantum-espresso.org", 
     in publications or presentations arising from this work. More details at
     http://www.quantum-espresso.org/quote

     Parallel version (MPI), running on    24 processors

     MPI processes distributed on     1 nodes
     R & G space division:  proc/nbgrp/npool/nimage =      24
     Reading input from /home/kevin/QE_CoCrFeMnNi/CoCrFeMnNi/Opt/binary/Opt-B1-CoFe/Mix/elastic/Chg_5-B1-CoFe.in

     Current dimensions of program PWSCF are:
     Max number of different atomic species (ntypx) = 10
     Max number of k-points (npk) =  40000
     Max angular momentum in pseudopotentials (lmaxx) =  3
     file Fe.pbe-spn-kjpaw_psl.0.2.1.UPF: wavefunction(s)  3D renormalized

     Subspace diagonalization in iterative solution of the eigenvalue problem:
     a serial algorithm will be used

     Found symmetry operation: I + ( -0.0000 -0.5000 -0.5000)
     This is a supercell, fractional translations are disabled

     Parallelization info
     --------------------
     sticks:   dense  smooth     PW     G-vecs:    dense   smooth      PW
     Min         264      87     24                15906     3053     458
     Max         266      88     25                15909     3057     463
     Sum        6361    2109    593               381791    73319   11071



     bravais-lattice index     =            0
     lattice parameter (alat)  =       8.6047  a.u.
     unit-cell volume          =     637.0947 (a.u.)^3
     number of atoms/cell      =            8
     number of atomic types    =            2
     number of electrons       =       132.00
     number of Kohn-Sham states=           79
     kinetic-energy cutoff     =      90.0000  Ry
     charge density cutoff     =    1080.0000  Ry
     scf convergence threshold =      1.0E-08
     mixing beta               =       0.2000
     number of iterations used =            8  plain     mixing
     energy convergence thresh.=      1.0E-05
     force convergence thresh. =      1.0E-04
     Exchange-correlation= SLA  PW   PBE  PBE
                           (   1   4   3   4   0   0   0)
     nstep                     =          100


     celldm(1)=   8.604679  celldm(2)=   0.000000  celldm(3)=   0.000000
     celldm(4)=   0.000000  celldm(5)=   0.000000  celldm(6)=   0.000000

     crystal axes: (cart. coord. in units of alat)
               a(1) = (   1.000000   0.000000   0.000000 )  
               a(2) = (   0.000000   1.000000   0.000000 )  
               a(3) = (   0.005000   0.000000   1.000000 )  

     reciprocal axes: (cart. coord. in units 2 pi/alat)
               b(1) = (  1.000000  0.000000 -0.005000 )  
               b(2) = (  0.000000  1.000000  0.000000 )  
               b(3) = (  0.000000  0.000000  1.000000 )  


     PseudoPot. # 1 for Fe read from file:
     /opt/QEpot/SSSP_efficiency_pseudos/Fe.pbe-spn-kjpaw_psl.0.2.1.UPF
     MD5 check sum: e86618425769142926afa95317d90200
     Pseudo is Projector augmented-wave + core cor, Zval = 16.0
     Generated using "atomic" code by A. Dal Corso  v.5.0.99 svn rev. 10869
     Shape of augmentation charge: PSQ
     Using radial grid of 1191 points,  6 beta functions with: 
                l(1) =   0
                l(2) =   0
                l(3) =   1
                l(4) =   1
                l(5) =   2
                l(6) =   2
     Q(r) pseudized with 0 coefficients 


     PseudoPot. # 2 for Co read from file:
     /opt/QEpot/SSSP_efficiency_pseudos/Co_pbe_v1.2.uspp.F.UPF
     MD5 check sum: 5f91765df6ddd3222702df6e7b74a16d
     Pseudo is Ultrasoft + core correction, Zval = 17.0
     Generated by new atomic code, or converted to UPF format
     Using radial grid of  863 points,  6 beta functions with: 
                l(1) =   0
                l(2) =   0
                l(3) =   1
                l(4) =   1
                l(5) =   2
                l(6) =   2
     Q(r) pseudized with  8 coefficients,  rinner =    1.200   1.200   1.200
                                                       1.200   1.200

     atomic species   valence    mass     pseudopotential
        Fe            16.00    55.84500     Fe( 1.00)
        Co            17.00    58.93300     Co( 1.00)

     Starting magnetic structure 
     atomic species   magnetization
        Fe           0.000
        Co           0.000

     No symmetry found



   Cartesian axes

     site n.     atom                  positions (alat units)
         1           Fe  tau(   1) = (   0.0006201   0.5018304  -0.0002192  )
         2           Co  tau(   2) = (   0.5031201   0.0018304   0.4997808  )
         3           Fe  tau(   3) = (   0.0031201   0.0018304   0.4997808  )
         4           Co  tau(   4) = (   0.5006201   0.5018304  -0.0002192  )
         5           Fe  tau(   5) = (   0.4981004   0.0014781   0.0013270  )
         6           Co  tau(   6) = (   0.0031201   0.5018304   0.4997808  )
         7           Fe  tau(   7) = (   0.5006004   0.5014781   0.5013270  )
         8           Co  tau(   8) = (   0.0006201   0.0018304  -0.0002192  )

     number of k points=   112  Gaussian smearing, width (Ry)=  0.0100

     Number of k-points >= 100: set verbosity='high' to print them.

     Dense  grid:   381791 G-vectors     FFT dimensions: (  96,  96,  96)

     Smooth grid:    73319 G-vectors     FFT dimensions: (  54,  54,  54)

     Estimated max dynamical RAM per process >     174.66 MB

     Estimated total dynamical RAM >       4.09 GB

     Check: negative core charge=   -0.000013
     Generating pointlists ...
     new r_m :   0.2052 (alat units)  1.7658 (a.u.) for type    1
     new r_m :   0.2052 (alat units)  1.7658 (a.u.) for type    2

     Initial potential from superposition of free atoms

     starting charge  127.99822, renormalised to  132.00000
     Starting wfcs are  104 randomized atomic wfcs
     Checking if some PAW data can be deallocated... 

     total cpu time spent up to now is       21.6 secs

     Self-consistent Calculation

     iteration #  1     ecut=    90.00 Ry     beta= 0.20
     Davidson diagonalization with overlap
     ethr =  1.00E-02,  avg # of iterations =  2.0

     total cpu time spent up to now is       72.8 secs

     total energy              =   -2506.07478265 Ry
     estimated scf accuracy    <      23.13765648 Ry

     total magnetization       =    -0.00 Bohr mag/cell
     absolute magnetization    =     0.01 Bohr mag/cell

     iteration #  2     ecut=    90.00 Ry     beta= 0.20
     Davidson diagonalization with overlap
     ethr =  1.00E-02,  avg # of iterations =  3.3

     total cpu time spent up to now is      126.2 secs

     total energy              =   -2508.27719427 Ry
     estimated scf accuracy    <      40.36919796 Ry

     total magnetization       =    -0.00 Bohr mag/cell
     absolute magnetization    =     0.01 Bohr mag/cell

     iteration #  3     ecut=    90.00 Ry     beta= 0.20
     Davidson diagonalization with overlap
     ethr =  1.00E-02,  avg # of iterations =  2.0

     total cpu time spent up to now is      171.5 secs

     total energy              =   -2510.26156177 Ry
     estimated scf accuracy    <       0.33152878 Ry

     total magnetization       =    -0.00 Bohr mag/cell
     absolute magnetization    =     0.01 Bohr mag/cell

     iteration #  4     ecut=    90.00 Ry     beta= 0.20
     Davidson diagonalization with overlap
     ethr =  2.51E-04,  avg # of iterations =  4.3

     total cpu time spent up to now is      237.3 secs

     total energy              =   -2510.37738130 Ry
     estimated scf accuracy    <       0.38502559 Ry

     total magnetization       =    -0.00 Bohr mag/cell
     absolute magnetization    =     0.01 Bohr mag/cell

     iteration #  5     ecut=    90.00 Ry     beta= 0.20
     Davidson diagonalization with overlap
     ethr =  2.51E-04,  avg # of iterations =  1.0

     total cpu time spent up to now is      275.5 secs

     total energy              =   -2510.36588757 Ry
     estimated scf accuracy    <       0.16357864 Ry

     total magnetization       =    -0.00 Bohr mag/cell
     absolute magnetization    =     0.01 Bohr mag/cell

     iteration #  6     ecut=    90.00 Ry     beta= 0.20
     Davidson diagonalization with overlap
     ethr =  1.24E-04,  avg # of iterations =  1.0

     total cpu time spent up to now is      313.6 secs

     total energy              =   -2510.37820578 Ry
     estimated scf accuracy    <       0.04542739 Ry

     total magnetization       =    -0.00 Bohr mag/cell
     absolute magnetization    =     0.01 Bohr mag/cell

     iteration #  7     ecut=    90.00 Ry     beta= 0.20
     Davidson diagonalization with overlap
     ethr =  3.44E-05,  avg # of iterations =  1.9

     total cpu time spent up to now is      356.3 secs

     total energy              =   -2510.36773536 Ry
     estimated scf accuracy    <       0.12004111 Ry

     total magnetization       =    -0.00 Bohr mag/cell
     absolute magnetization    =     0.01 Bohr mag/cell

     iteration #  8     ecut=    90.00 Ry     beta= 0.20
     Davidson diagonalization with overlap
     ethr =  3.44E-05,  avg # of iterations =  2.0

     total cpu time spent up to now is      400.3 secs

     total energy              =   -2510.38100451 Ry
     estimated scf accuracy    <       0.06558281 Ry

     total magnetization       =    -0.01 Bohr mag/cell
     absolute magnetization    =     0.01 Bohr mag/cell

     iteration #  9     ecut=    90.00 Ry     beta= 0.20
     Davidson diagonalization with overlap
     ethr =  3.44E-05,  avg # of iterations =  1.0

     total cpu time spent up to now is      438.7 secs

     total energy              =   -2510.37017319 Ry
     estimated scf accuracy    <       0.11805805 Ry

     total magnetization       =    -0.01 Bohr mag/cell
     absolute magnetization    =     0.02 Bohr mag/cell

     iteration # 10     ecut=    90.00 Ry     beta= 0.20
     Davidson diagonalization with overlap
     ethr =  3.44E-05,  avg # of iterations =  1.9

     total cpu time spent up to now is      481.6 secs

     total energy              =   -2510.37723346 Ry
     estimated scf accuracy    <       0.01166653 Ry

     total magnetization       =    -0.01 Bohr mag/cell
     absolute magnetization    =     0.02 Bohr mag/cell

     iteration # 11     ecut=    90.00 Ry     beta= 0.20
     Davidson diagonalization with overlap
     ethr =  8.84E-06,  avg # of iterations =  1.2

     total cpu time spent up to now is      520.3 secs

     total energy              =   -2510.37726223 Ry
     estimated scf accuracy    <       0.00338096 Ry

     total magnetization       =    -0.01 Bohr mag/cell
     absolute magnetization    =     0.02 Bohr mag/cell

     iteration # 12     ecut=    90.00 Ry     beta= 0.20
     Davidson diagonalization with overlap
     ethr =  2.56E-06,  avg # of iterations =  1.8

     total cpu time spent up to now is      561.3 secs

     total energy              =   -2510.37746009 Ry
     estimated scf accuracy    <       0.00109499 Ry

     total magnetization       =    -0.01 Bohr mag/cell
     absolute magnetization    =     0.03 Bohr mag/cell

     iteration # 13     ecut=    90.00 Ry     beta= 0.20
     Davidson diagonalization with overlap
     ethr =  8.30E-07,  avg # of iterations =  1.8

     total cpu time spent up to now is      603.9 secs

     total energy              =   -2510.37749853 Ry
     estimated scf accuracy    <       0.00001763 Ry

     total magnetization       =    -0.01 Bohr mag/cell
     absolute magnetization    =     0.03 Bohr mag/cell

     iteration # 14     ecut=    90.00 Ry     beta= 0.20
     Davidson diagonalization with overlap
     ethr =  1.34E-08,  avg # of iterations =  5.9

     total cpu time spent up to now is      691.7 secs

     total energy              =   -2510.37752055 Ry
     estimated scf accuracy    <       0.00002177 Ry

     total magnetization       =    -0.01 Bohr mag/cell
     absolute magnetization    =     0.04 Bohr mag/cell

     iteration # 15     ecut=    90.00 Ry     beta= 0.20
     Davidson diagonalization with overlap
     ethr =  1.34E-08,  avg # of iterations =  1.0

     total cpu time spent up to now is      729.9 secs

     total energy              =   -2510.37752073 Ry
     estimated scf accuracy    <       0.00002387 Ry

     total magnetization       =    -0.01 Bohr mag/cell
     absolute magnetization    =     0.04 Bohr mag/cell

     iteration # 16     ecut=    90.00 Ry     beta= 0.20
     Davidson diagonalization with overlap
     ethr =  1.34E-08,  avg # of iterations =  1.0

     total cpu time spent up to now is      768.1 secs

     total energy              =   -2510.37752098 Ry
     estimated scf accuracy    <       0.00001241 Ry

     total magnetization       =    -0.01 Bohr mag/cell
     absolute magnetization    =     0.04 Bohr mag/cell

     iteration # 17     ecut=    90.00 Ry     beta= 0.20
     Davidson diagonalization with overlap
     ethr =  9.41E-09,  avg # of iterations =  1.0

     total cpu time spent up to now is      806.3 secs

     total energy              =   -2510.37752114 Ry
     estimated scf accuracy    <       0.00000919 Ry

     total magnetization       =    -0.01 Bohr mag/cell
     absolute magnetization    =     0.04 Bohr mag/cell

     iteration # 18     ecut=    90.00 Ry     beta= 0.20
     Davidson diagonalization with overlap
     ethr =  6.96E-09,  avg # of iterations =  1.0

     total cpu time spent up to now is      844.5 secs

     total energy              =   -2510.37752110 Ry
     estimated scf accuracy    <       0.00003119 Ry

     total magnetization       =    -0.01 Bohr mag/cell
     absolute magnetization    =     0.04 Bohr mag/cell

     iteration # 19     ecut=    90.00 Ry     beta= 0.20
     Davidson diagonalization with overlap
     ethr =  6.96E-09,  avg # of iterations =  1.0

     total cpu time spent up to now is      882.6 secs

     total energy              =   -2510.37752193 Ry
     estimated scf accuracy    <       0.00001230 Ry

     total magnetization       =    -0.02 Bohr mag/cell
     absolute magnetization    =     0.05 Bohr mag/cell

     iteration # 20     ecut=    90.00 Ry     beta= 0.20
     Davidson diagonalization with overlap
     ethr =  6.96E-09,  avg # of iterations =  1.0

     total cpu time spent up to now is      920.9 secs

     total energy              =   -2510.37752242 Ry
     estimated scf accuracy    <       0.00002145 Ry

     total magnetization       =    -0.02 Bohr mag/cell
     absolute magnetization    =     0.05 Bohr mag/cell

     iteration # 21     ecut=    90.00 Ry     beta= 0.20
     Davidson diagonalization with overlap
     ethr =  6.96E-09,  avg # of iterations =  1.0

     total cpu time spent up to now is      959.0 secs

     total energy              =   -2510.37751803 Ry
     estimated scf accuracy    <       0.00001192 Ry

     total magnetization       =    -0.02 Bohr mag/cell
     absolute magnetization    =     0.05 Bohr mag/cell

     iteration # 22     ecut=    90.00 Ry     beta= 0.20
     Davidson diagonalization with overlap
     ethr =  6.96E-09,  avg # of iterations =  1.0

     total cpu time spent up to now is      997.2 secs

     total energy              =   -2510.37751685 Ry
     estimated scf accuracy    <       0.00001013 Ry

     total magnetization       =    -0.01 Bohr mag/cell
     absolute magnetization    =     0.03 Bohr mag/cell

     iteration # 23     ecut=    90.00 Ry     beta= 0.20
     Davidson diagonalization with overlap
     ethr =  6.96E-09,  avg # of iterations =  1.1

     total cpu time spent up to now is     1035.9 secs

     total energy              =   -2510.37751710 Ry
     estimated scf accuracy    <       0.00003638 Ry

     total magnetization       =    -0.01 Bohr mag/cell
     absolute magnetization    =     0.01 Bohr mag/cell

     iteration # 24     ecut=    90.00 Ry     beta= 0.20
     Davidson diagonalization with overlap
     ethr =  6.96E-09,  avg # of iterations =  1.0

     total cpu time spent up to now is     1074.1 secs

     total energy              =   -2510.37751604 Ry
     estimated scf accuracy    <       0.00007147 Ry

     total magnetization       =    -0.01 Bohr mag/cell
     absolute magnetization    =     0.02 Bohr mag/cell

     iteration # 25     ecut=    90.00 Ry     beta= 0.20
     Davidson diagonalization with overlap
     ethr =  6.96E-09,  avg # of iterations =  1.2

     total cpu time spent up to now is     1113.5 secs

     total energy              =   -2510.37751443 Ry
     estimated scf accuracy    <       0.00019267 Ry

     total magnetization       =    -0.01 Bohr mag/cell
     absolute magnetization    =     0.02 Bohr mag/cell

     iteration # 26     ecut=    90.00 Ry     beta= 0.20
     Davidson diagonalization with overlap
     ethr =  6.96E-09,  avg # of iterations =  1.3

     total cpu time spent up to now is     1153.1 secs

     total energy              =   -2510.37751624 Ry
     estimated scf accuracy    <       0.00005305 Ry

     total magnetization       =    -0.01 Bohr mag/cell
     absolute magnetization    =     0.01 Bohr mag/cell

     iteration # 27     ecut=    90.00 Ry     beta= 0.20
     Davidson diagonalization with overlap
     ethr =  6.96E-09,  avg # of iterations =  1.0

     total cpu time spent up to now is     1191.4 secs

     total energy              =   -2510.37751732 Ry
     estimated scf accuracy    <       0.00001354 Ry

     total magnetization       =    -0.01 Bohr mag/cell
     absolute magnetization    =     0.01 Bohr mag/cell

     iteration # 28     ecut=    90.00 Ry     beta= 0.20
     Davidson diagonalization with overlap
     ethr =  6.96E-09,  avg # of iterations =  1.0

     total cpu time spent up to now is     1229.6 secs

     total energy              =   -2510.37751724 Ry
     estimated scf accuracy    <       0.00001880 Ry

     total magnetization       =    -0.01 Bohr mag/cell
     absolute magnetization    =     0.01 Bohr mag/cell

     iteration # 29     ecut=    90.00 Ry     beta= 0.20
     Davidson diagonalization with overlap
     ethr =  6.96E-09,  avg # of iterations =  1.0

     total cpu time spent up to now is     1267.7 secs

     total energy              =   -2510.37751714 Ry
     estimated scf accuracy    <       0.00001831 Ry

     total magnetization       =    -0.01 Bohr mag/cell
     absolute magnetization    =     0.01 Bohr mag/cell

     iteration # 30     ecut=    90.00 Ry     beta= 0.20
     Davidson diagonalization with overlap
     ethr =  6.96E-09,  avg # of iterations =  1.0

     total cpu time spent up to now is     1305.9 secs

     total energy              =   -2510.37751737 Ry
     estimated scf accuracy    <       0.00000643 Ry

     total magnetization       =    -0.01 Bohr mag/cell
     absolute magnetization    =     0.01 Bohr mag/cell

     iteration # 31     ecut=    90.00 Ry     beta= 0.20
     Davidson diagonalization with overlap
     ethr =  4.87E-09,  avg # of iterations =  1.0

     total cpu time spent up to now is     1344.1 secs

     total energy              =   -2510.37751763 Ry
     estimated scf accuracy    <       0.00000124 Ry

     total magnetization       =    -0.01 Bohr mag/cell
     absolute magnetization    =     0.01 Bohr mag/cell

     iteration # 32     ecut=    90.00 Ry     beta= 0.20
     Davidson diagonalization with overlap
     ethr =  9.36E-10,  avg # of iterations =  1.0

     total cpu time spent up to now is     1382.3 secs

     total energy              =   -2510.37751768 Ry
     estimated scf accuracy    <       0.00000059 Ry

     total magnetization       =    -0.01 Bohr mag/cell
     absolute magnetization    =     0.01 Bohr mag/cell

     iteration # 33     ecut=    90.00 Ry     beta= 0.20
     Davidson diagonalization with overlap
     ethr =  4.50E-10,  avg # of iterations =  1.0

     total cpu time spent up to now is     1420.5 secs

     total energy              =   -2510.37751764 Ry
     estimated scf accuracy    <       0.00000094 Ry

     total magnetization       =    -0.01 Bohr mag/cell
     absolute magnetization    =     0.01 Bohr mag/cell

     iteration # 34     ecut=    90.00 Ry     beta= 0.20
     Davidson diagonalization with overlap
     ethr =  4.50E-10,  avg # of iterations =  1.1

     total cpu time spent up to now is     1458.7 secs

     total energy              =   -2510.37751766 Ry
     estimated scf accuracy    <       0.00000364 Ry

     total magnetization       =    -0.01 Bohr mag/cell
     absolute magnetization    =     0.01 Bohr mag/cell

     iteration # 35     ecut=    90.00 Ry     beta= 0.20
     Davidson diagonalization with overlap
     ethr =  4.50E-10,  avg # of iterations =  1.0

     total cpu time spent up to now is     1497.0 secs

     total energy              =   -2510.37751768 Ry
     estimated scf accuracy    <       0.00000708 Ry

     total magnetization       =    -0.01 Bohr mag/cell
     absolute magnetization    =     0.01 Bohr mag/cell

     iteration # 36     ecut=    90.00 Ry     beta= 0.20
     Davidson diagonalization with overlap
     ethr =  4.50E-10,  avg # of iterations =  1.1

     total cpu time spent up to now is     1535.2 secs

     total energy              =   -2510.37751774 Ry
     estimated scf accuracy    <       0.00000174 Ry

     total magnetization       =    -0.01 Bohr mag/cell
     absolute magnetization    =     0.02 Bohr mag/cell

     iteration # 37     ecut=    90.00 Ry     beta= 0.20
     Davidson diagonalization with overlap
     ethr =  4.50E-10,  avg # of iterations =  1.0

     total cpu time spent up to now is     1573.3 secs

     total energy              =   -2510.37751776 Ry
     estimated scf accuracy    <       0.00000070 Ry

     total magnetization       =    -0.01 Bohr mag/cell
     absolute magnetization    =     0.02 Bohr mag/cell

     iteration # 38     ecut=    90.00 Ry     beta= 0.20
     Davidson diagonalization with overlap
     ethr =  4.50E-10,  avg # of iterations =  1.0

     total cpu time spent up to now is     1611.4 secs

     total energy              =   -2510.37751771 Ry
     estimated scf accuracy    <       0.00000076 Ry

     total magnetization       =    -0.01 Bohr mag/cell
     absolute magnetization    =     0.02 Bohr mag/cell

     iteration # 39     ecut=    90.00 Ry     beta= 0.20
     Davidson diagonalization with overlap
     ethr =  4.50E-10,  avg # of iterations =  1.1

     total cpu time spent up to now is     1649.5 secs

     total energy              =   -2510.37751761 Ry
     estimated scf accuracy    <       0.00000188 Ry

     total magnetization       =    -0.01 Bohr mag/cell
     absolute magnetization    =     0.01 Bohr mag/cell

     iteration # 40     ecut=    90.00 Ry     beta= 0.20
     Davidson diagonalization with overlap
     ethr =  4.50E-10,  avg # of iterations =  1.0

     total cpu time spent up to now is     1687.6 secs

     total energy              =   -2510.37751764 Ry
     estimated scf accuracy    <       0.00000083 Ry

     total magnetization       =    -0.00 Bohr mag/cell
     absolute magnetization    =     0.01 Bohr mag/cell

     iteration # 41     ecut=    90.00 Ry     beta= 0.20
     Davidson diagonalization with overlap
     ethr =  4.50E-10,  avg # of iterations =  1.1

     total cpu time spent up to now is     1725.7 secs

     total energy              =   -2510.37751754 Ry
     estimated scf accuracy    <       0.00000284 Ry

     total magnetization       =    -0.01 Bohr mag/cell
     absolute magnetization    =     0.01 Bohr mag/cell

     iteration # 42     ecut=    90.00 Ry     beta= 0.20
     Davidson diagonalization with overlap
     ethr =  4.50E-10,  avg # of iterations =  1.0

     total cpu time spent up to now is     1763.7 secs

     total energy              =   -2510.37751770 Ry
     estimated scf accuracy    <       0.00000043 Ry

     total magnetization       =    -0.00 Bohr mag/cell
     absolute magnetization    =     0.01 Bohr mag/cell

     iteration # 43     ecut=    90.00 Ry     beta= 0.20
     Davidson diagonalization with overlap
     ethr =  3.25E-10,  avg # of iterations =  1.0

     total cpu time spent up to now is     1801.7 secs

     total energy              =   -2510.37751764 Ry
     estimated scf accuracy    <       0.00000051 Ry

     total magnetization       =     0.00 Bohr mag/cell
     absolute magnetization    =     0.01 Bohr mag/cell

     iteration # 44     ecut=    90.00 Ry     beta= 0.20
     Davidson diagonalization with overlap
     ethr =  3.25E-10,  avg # of iterations =  1.0

     total cpu time spent up to now is     1839.7 secs

     total energy              =   -2510.37751762 Ry
     estimated scf accuracy    <       0.00000075 Ry

     total magnetization       =     0.00 Bohr mag/cell
     absolute magnetization    =     0.01 Bohr mag/cell

     iteration # 45     ecut=    90.00 Ry     beta= 0.20
     Davidson diagonalization with overlap
     ethr =  3.25E-10,  avg # of iterations =  1.0

     total cpu time spent up to now is     1877.8 secs

     total energy              =   -2510.37751759 Ry
     estimated scf accuracy    <       0.00000178 Ry

     total magnetization       =     0.00 Bohr mag/cell
     absolute magnetization    =     0.01 Bohr mag/cell

     iteration # 46     ecut=    90.00 Ry     beta= 0.20
     Davidson diagonalization with overlap
     ethr =  3.25E-10,  avg # of iterations =  1.0

     total cpu time spent up to now is     1915.8 secs

     total energy              =   -2510.37751757 Ry
     estimated scf accuracy    <       0.00000155 Ry

     total magnetization       =     0.00 Bohr mag/cell
     absolute magnetization    =     0.01 Bohr mag/cell

     iteration # 47     ecut=    90.00 Ry     beta= 0.20
     Davidson diagonalization with overlap
     ethr =  3.25E-10,  avg # of iterations =  1.0

     total cpu time spent up to now is     1953.8 secs

     total energy              =   -2510.37751761 Ry
     estimated scf accuracy    <       0.00000119 Ry

     total magnetization       =     0.00 Bohr mag/cell
     absolute magnetization    =     0.01 Bohr mag/cell

     iteration # 48     ecut=    90.00 Ry     beta= 0.20
     Davidson diagonalization with overlap
     ethr =  3.25E-10,  avg # of iterations =  1.1

     total cpu time spent up to now is     1992.0 secs

     total energy              =   -2510.37751757 Ry
     estimated scf accuracy    <       0.00000054 Ry

     total magnetization       =     0.00 Bohr mag/cell
     absolute magnetization    =     0.01 Bohr mag/cell

     iteration # 49     ecut=    90.00 Ry     beta= 0.20
     Davidson diagonalization with overlap
     ethr =  3.25E-10,  avg # of iterations =  1.0

     total cpu time spent up to now is     2030.0 secs

     total energy              =   -2510.37751757 Ry
     estimated scf accuracy    <       0.00000138 Ry

     total magnetization       =     0.00 Bohr mag/cell
     absolute magnetization    =     0.01 Bohr mag/cell

     iteration # 50     ecut=    90.00 Ry     beta= 0.20
     Davidson diagonalization with overlap
     ethr =  3.25E-10,  avg # of iterations =  1.0

     total cpu time spent up to now is     2068.0 secs

     total energy              =   -2510.37751749 Ry
     estimated scf accuracy    <       0.00000264 Ry

     total magnetization       =     0.00 Bohr mag/cell
     absolute magnetization    =     0.01 Bohr mag/cell

     iteration # 51     ecut=    90.00 Ry     beta= 0.20
     Davidson diagonalization with overlap
     ethr =  3.25E-10,  avg # of iterations =  1.0

     total cpu time spent up to now is     2106.0 secs

     total energy              =   -2510.37751753 Ry
     estimated scf accuracy    <       0.00000053 Ry

     total magnetization       =     0.00 Bohr mag/cell
     absolute magnetization    =     0.01 Bohr mag/cell

     iteration # 52     ecut=    90.00 Ry     beta= 0.20
     Davidson diagonalization with overlap
     ethr =  3.25E-10,  avg # of iterations =  1.0

     total cpu time spent up to now is     2144.0 secs

     total energy              =   -2510.37751747 Ry
     estimated scf accuracy    <       0.00000061 Ry

     total magnetization       =     0.00 Bohr mag/cell
     absolute magnetization    =     0.01 Bohr mag/cell

     iteration # 53     ecut=    90.00 Ry     beta= 0.20
     Davidson diagonalization with overlap
     ethr =  3.25E-10,  avg # of iterations =  1.0

     total cpu time spent up to now is     2182.0 secs

     total energy              =   -2510.37751759 Ry
     estimated scf accuracy    <       0.00000021 Ry

     total magnetization       =     0.01 Bohr mag/cell
     absolute magnetization    =     0.01 Bohr mag/cell

     iteration # 54     ecut=    90.00 Ry     beta= 0.20
     Davidson diagonalization with overlap
     ethr =  1.62E-10,  avg # of iterations =  1.0

     total cpu time spent up to now is     2219.9 secs

     total energy              =   -2510.37751760 Ry
     estimated scf accuracy    <       0.00000025 Ry

     total magnetization       =     0.01 Bohr mag/cell
     absolute magnetization    =     0.01 Bohr mag/cell

     iteration # 55     ecut=    90.00 Ry     beta= 0.20
     Davidson diagonalization with overlap
     ethr =  1.62E-10,  avg # of iterations =  1.0

     total cpu time spent up to now is     2257.9 secs

     total energy              =   -2510.37751760 Ry
     estimated scf accuracy    <       0.00000026 Ry

     total magnetization       =     0.01 Bohr mag/cell
     absolute magnetization    =     0.01 Bohr mag/cell

     iteration # 56     ecut=    90.00 Ry     beta= 0.20
     Davidson diagonalization with overlap
     ethr =  1.62E-10,  avg # of iterations =  1.0

     total cpu time spent up to now is     2295.9 secs

     total energy              =   -2510.37751754 Ry
     estimated scf accuracy    <       0.00000033 Ry

     total magnetization       =     0.01 Bohr mag/cell
     absolute magnetization    =     0.01 Bohr mag/cell

     iteration # 57     ecut=    90.00 Ry     beta= 0.20
     Davidson diagonalization with overlap
     ethr =  1.62E-10,  avg # of iterations =  1.0

     total cpu time spent up to now is     2333.9 secs

     total energy              =   -2510.37751754 Ry
     estimated scf accuracy    <       0.00000060 Ry

     total magnetization       =     0.01 Bohr mag/cell
     absolute magnetization    =     0.01 Bohr mag/cell

     iteration # 58     ecut=    90.00 Ry     beta= 0.20
     Davidson diagonalization with overlap
     ethr =  1.62E-10,  avg # of iterations =  1.0

     total cpu time spent up to now is     2372.7 secs

     total energy              =   -2510.37751753 Ry
     estimated scf accuracy    <       0.00000034 Ry

     total magnetization       =     0.01 Bohr mag/cell
     absolute magnetization    =     0.01 Bohr mag/cell

     iteration # 59     ecut=    90.00 Ry     beta= 0.20
     Davidson diagonalization with overlap
     ethr =  1.62E-10,  avg # of iterations =  1.0

     total cpu time spent up to now is     2410.9 secs

     total energy              =   -2510.37751753 Ry
     estimated scf accuracy    <       0.00000082 Ry

     total magnetization       =     0.01 Bohr mag/cell
     absolute magnetization    =     0.01 Bohr mag/cell

     iteration # 60     ecut=    90.00 Ry     beta= 0.20
     Davidson diagonalization with overlap
     ethr =  1.62E-10,  avg # of iterations =  1.0

     total cpu time spent up to now is     2448.9 secs

     total energy              =   -2510.37751753 Ry
     estimated scf accuracy    <       0.00000071 Ry

     total magnetization       =     0.01 Bohr mag/cell
     absolute magnetization    =     0.01 Bohr mag/cell

     iteration # 61     ecut=    90.00 Ry     beta= 0.20
     Davidson diagonalization with overlap
     ethr =  1.62E-10,  avg # of iterations =  1.0

     total cpu time spent up to now is     2487.1 secs

     total energy              =   -2510.37751750 Ry
     estimated scf accuracy    <       0.00000111 Ry

     total magnetization       =     0.01 Bohr mag/cell
     absolute magnetization    =     0.01 Bohr mag/cell

     iteration # 62     ecut=    90.00 Ry     beta= 0.20
     Davidson diagonalization with overlap
     ethr =  1.62E-10,  avg # of iterations =  1.0

     total cpu time spent up to now is     2525.2 secs

     total energy              =   -2510.37751753 Ry
     estimated scf accuracy    <       0.00000054 Ry

     total magnetization       =     0.01 Bohr mag/cell
     absolute magnetization    =     0.01 Bohr mag/cell

     iteration # 63     ecut=    90.00 Ry     beta= 0.20
     Davidson diagonalization with overlap
     ethr =  1.62E-10,  avg # of iterations =  1.0

     total cpu time spent up to now is     2563.3 secs

     total energy              =   -2510.37751755 Ry
     estimated scf accuracy    <       0.00000027 Ry

     total magnetization       =     0.01 Bohr mag/cell
     absolute magnetization    =     0.01 Bohr mag/cell

     iteration # 64     ecut=    90.00 Ry     beta= 0.20
     Davidson diagonalization with overlap
     ethr =  1.62E-10,  avg # of iterations =  1.0

     total cpu time spent up to now is     2601.3 secs

     total energy              =   -2510.37751758 Ry
     estimated scf accuracy    <       0.00000013 Ry

     total magnetization       =     0.01 Bohr mag/cell
     absolute magnetization    =     0.01 Bohr mag/cell

     iteration # 65     ecut=    90.00 Ry     beta= 0.20
     Davidson diagonalization with overlap
     ethr =  1.02E-10,  avg # of iterations =  1.0

     total cpu time spent up to now is     2639.4 secs

     total energy              =   -2510.37751759 Ry
     estimated scf accuracy    <       0.00000015 Ry

     total magnetization       =     0.01 Bohr mag/cell
     absolute magnetization    =     0.01 Bohr mag/cell

     iteration # 66     ecut=    90.00 Ry     beta= 0.20
     Davidson diagonalization with overlap
     ethr =  1.02E-10,  avg # of iterations =  1.0

     total cpu time spent up to now is     2677.5 secs

     total energy              =   -2510.37751756 Ry
     estimated scf accuracy    <       0.00000039 Ry

     total magnetization       =     0.01 Bohr mag/cell
     absolute magnetization    =     0.01 Bohr mag/cell

     iteration # 67     ecut=    90.00 Ry     beta= 0.20
     Davidson diagonalization with overlap
     ethr =  1.02E-10,  avg # of iterations =  1.0

     total cpu time spent up to now is     2715.5 secs

     total energy              =   -2510.37751757 Ry
     estimated scf accuracy    <       0.00000026 Ry

     total magnetization       =     0.01 Bohr mag/cell
     absolute magnetization    =     0.01 Bohr mag/cell

     iteration # 68     ecut=    90.00 Ry     beta= 0.20
     Davidson diagonalization with overlap
     ethr =  1.02E-10,  avg # of iterations =  1.0

     total cpu time spent up to now is     2753.6 secs

     total energy              =   -2510.37751756 Ry
     estimated scf accuracy    <       0.00000024 Ry

     total magnetization       =     0.01 Bohr mag/cell
     absolute magnetization    =     0.01 Bohr mag/cell

     iteration # 69     ecut=    90.00 Ry     beta= 0.20
     Davidson diagonalization with overlap
     ethr =  1.02E-10,  avg # of iterations =  1.0

     total cpu time spent up to now is     2791.7 secs

     total energy              =   -2510.37751757 Ry
     estimated scf accuracy    <       0.00000015 Ry

     total magnetization       =     0.01 Bohr mag/cell
     absolute magnetization    =     0.01 Bohr mag/cell

     iteration # 70     ecut=    90.00 Ry     beta= 0.20
     Davidson diagonalization with overlap
     ethr =  1.02E-10,  avg # of iterations =  1.0

     total cpu time spent up to now is     2829.7 secs

     total energy              =   -2510.37751757 Ry
     estimated scf accuracy    <       0.00000015 Ry

     total magnetization       =     0.01 Bohr mag/cell
     absolute magnetization    =     0.01 Bohr mag/cell

     iteration # 71     ecut=    90.00 Ry     beta= 0.20
     Davidson diagonalization with overlap
     ethr =  1.02E-10,  avg # of iterations =  1.0

     total cpu time spent up to now is     2867.9 secs

     total energy              =   -2510.37751757 Ry
     estimated scf accuracy    <       0.00000015 Ry

     total magnetization       =     0.01 Bohr mag/cell
     absolute magnetization    =     0.01 Bohr mag/cell

     iteration # 72     ecut=    90.00 Ry     beta= 0.20
     Davidson diagonalization with overlap
     ethr =  1.02E-10,  avg # of iterations =  1.0

     total cpu time spent up to now is     2905.9 secs

     total energy              =   -2510.37751757 Ry
     estimated scf accuracy    <       0.00000015 Ry

     total magnetization       =     0.01 Bohr mag/cell
     absolute magnetization    =     0.01 Bohr mag/cell

     iteration # 73     ecut=    90.00 Ry     beta= 0.20
     Davidson diagonalization with overlap
     ethr =  1.02E-10,  avg # of iterations =  1.0

     total cpu time spent up to now is     2944.0 secs

     total energy              =   -2510.37751759 Ry
     estimated scf accuracy    <       0.00000016 Ry

     total magnetization       =     0.01 Bohr mag/cell
     absolute magnetization    =     0.01 Bohr mag/cell

     iteration # 74     ecut=    90.00 Ry     beta= 0.20
     Davidson diagonalization with overlap
     ethr =  1.02E-10,  avg # of iterations =  1.0

     total cpu time spent up to now is     2982.0 secs

     total energy              =   -2510.37751756 Ry
     estimated scf accuracy    <       0.00000019 Ry

     total magnetization       =     0.01 Bohr mag/cell
     absolute magnetization    =     0.01 Bohr mag/cell

     iteration # 75     ecut=    90.00 Ry     beta= 0.20
     Davidson diagonalization with overlap
     ethr =  1.02E-10,  avg # of iterations =  1.0

     total cpu time spent up to now is     3020.1 secs

     total energy              =   -2510.37751755 Ry
     estimated scf accuracy    <       0.00000045 Ry

     total magnetization       =     0.01 Bohr mag/cell
     absolute magnetization    =     0.01 Bohr mag/cell

     iteration # 76     ecut=    90.00 Ry     beta= 0.20
     Davidson diagonalization with overlap
     ethr =  1.02E-10,  avg # of iterations =  1.0

     total cpu time spent up to now is     3058.2 secs

     total energy              =   -2510.37751750 Ry
     estimated scf accuracy    <       0.00000067 Ry

     total magnetization       =     0.01 Bohr mag/cell
     absolute magnetization    =     0.01 Bohr mag/cell

     iteration # 77     ecut=    90.00 Ry     beta= 0.20
     Davidson diagonalization with overlap
     ethr =  1.02E-10,  avg # of iterations =  1.1

     total cpu time spent up to now is     3096.4 secs

     total energy              =   -2510.37751753 Ry
     estimated scf accuracy    <       0.00000022 Ry

     total magnetization       =     0.00 Bohr mag/cell
     absolute magnetization    =     0.00 Bohr mag/cell

     iteration # 78     ecut=    90.00 Ry     beta= 0.20
     Davidson diagonalization with overlap
     ethr =  1.02E-10,  avg # of iterations =  1.0

     total cpu time spent up to now is     3134.4 secs

     total energy              =   -2510.37751750 Ry
     estimated scf accuracy    <       0.00000022 Ry

     total magnetization       =     0.00 Bohr mag/cell
     absolute magnetization    =     0.00 Bohr mag/cell

     iteration # 79     ecut=    90.00 Ry     beta= 0.20
     Davidson diagonalization with overlap
     ethr =  1.02E-10,  avg # of iterations =  1.0

     total cpu time spent up to now is     3172.5 secs

     total energy              =   -2510.37751751 Ry
     estimated scf accuracy    <       0.00000024 Ry

     total magnetization       =     0.00 Bohr mag/cell
     absolute magnetization    =     0.00 Bohr mag/cell

     iteration # 80     ecut=    90.00 Ry     beta= 0.20
     Davidson diagonalization with overlap
     ethr =  1.02E-10,  avg # of iterations =  1.0

     total cpu time spent up to now is     3210.5 secs

     total energy              =   -2510.37751753 Ry
     estimated scf accuracy    <       0.00000005 Ry

     total magnetization       =    -0.00 Bohr mag/cell
     absolute magnetization    =     0.00 Bohr mag/cell

     iteration # 81     ecut=    90.00 Ry     beta= 0.20
     Davidson diagonalization with overlap
     ethr =  3.92E-11,  avg # of iterations =  1.1

     Magnetic moment per site:
     atom:    1    charge:   14.0183    magn:    0.0001    constr:    0.0000
     atom:    2    charge:   15.1686    magn:   -0.0003    constr:    0.0000
     atom:    3    charge:   14.0183    magn:   -0.0001    constr:    0.0000
     atom:    4    charge:   15.1687    magn:   -0.0002    constr:    0.0000
     atom:    5    charge:   14.0184    magn:   -0.0000    constr:    0.0000
     atom:    6    charge:   15.1687    magn:   -0.0000    constr:    0.0000
     atom:    7    charge:   14.0184    magn:   -0.0002    constr:    0.0000
     atom:    8    charge:   15.1687    magn:    0.0004    constr:    0.0000

     total cpu time spent up to now is     3248.7 secs

     End of self-consistent calculation

     Number of k-points >= 100: set verbosity='high' to print the bands.

     the Fermi energy is    17.1659 ev

!    total energy              =   -2510.37751753 Ry
     estimated scf accuracy    <          9.5E-09 Ry
     smearing contrib. (-TS)   =      -0.01859797 Ry
     internal energy E=F+TS    =   -2510.35891955 Ry

     The total energy is F=E-TS. E is the sum of the following terms:
     one-electron contribution =   -1158.15585193 Ry
     hartree contribution      =     659.06170742 Ry
     xc contribution           =    -269.52618573 Ry
     ewald contribution        =   -1437.14074185 Ry
     one-center paw contrib.   =    -304.59784746 Ry

     total magnetization       =    -0.00 Bohr mag/cell
     absolute magnetization    =     0.00 Bohr mag/cell

     convergence has been achieved in  81 iterations

     Forces acting on atoms (cartesian axes, Ry/au):

     atom    1 type  1   force =     0.00095120    0.00015225   -0.00060398
     atom    2 type  2   force =     0.00037477   -0.00002859    0.00011932
     atom    3 type  1   force =     0.00095046    0.00015098   -0.00060547
     atom    4 type  2   force =     0.00037369   -0.00002917    0.00012162
     atom    5 type  1   force =    -0.00050205   -0.00008863    0.00034108
     atom    6 type  2   force =    -0.00082252   -0.00003530    0.00014375
     atom    7 type  1   force =    -0.00050446   -0.00008624    0.00034011
     atom    8 type  2   force =    -0.00082110   -0.00003530    0.00014357

     Total force =     0.002246     Total SCF correction =     0.000045


     Computing stress (Cartesian axis) and pressure

          total   stress  (Ry/bohr**3)                   (kbar)     P=        4.78
   0.00003269   0.00000009   0.00000629            4.81        0.01        0.93
   0.00000009   0.00003239   0.00000003            0.01        4.76        0.00
   0.00000629   0.00000003   0.00003234            0.93        0.00        4.76


     BFGS Geometry Optimization
     Energy error            =      0.0E+00
     Gradient error          =      9.5E-04

     number of scf cycles    =   1
     number of bfgs steps    =   0

     energy   new            =   -2510.3775175257 Ry

     new trust radius        =       0.0011369949 bohr
     new conv_thr            =       0.0000000100 Ry


ATOMIC_POSITIONS (angstrom)
Fe            0.0033267526        2.2851151186       -0.0013179195
Co            2.2911052180        0.0083194245        2.2757648345
Fe            0.0147098580        0.0084144456        2.2753812908
Co            2.2797211457        2.2850191165       -0.0009339474
Fe            2.2677845041        0.0066833828        0.0062229962
Co            0.0137716409        2.2850158741        2.2757777587
Fe            2.2791667272        2.2833846441        2.2829224843
Co            0.0023888910        0.0083158718       -0.0009223324



     Writing output data file ./pwscf.save/
     NEW-OLD atomic charge density approx. for the potential

     Check: negative core charge=   -0.000013
     Generating pointlists ...

     total cpu time spent up to now is     3277.1 secs

     Self-consistent Calculation

     iteration #  1     ecut=    90.00 Ry     beta= 0.20
     Davidson diagonalization with overlap
     ethr =  1.00E-06,  avg # of iterations =  2.5

     Threshold (ethr) on eigenvalues was too large:
     Diagonalizing with lowered threshold

     Davidson diagonalization with overlap
     ethr =  1.92E-08,  avg # of iterations =  4.2

     total cpu time spent up to now is     3395.5 secs

     total energy              =   -2510.37751447 Ry
     estimated scf accuracy    <       0.00002562 Ry

     total magnetization       =    -0.00 Bohr mag/cell
     absolute magnetization    =     0.00 Bohr mag/cell

     iteration #  2     ecut=    90.00 Ry     beta= 0.20
     Davidson diagonalization with overlap
     ethr =  1.94E-08,  avg # of iterations =  2.4

     total cpu time spent up to now is     3444.5 secs

     total energy              =   -2510.37746845 Ry
     estimated scf accuracy    <       0.00386504 Ry

     total magnetization       =    -0.00 Bohr mag/cell
     absolute magnetization    =     0.00 Bohr mag/cell

     iteration #  3     ecut=    90.00 Ry     beta= 0.20
     Davidson diagonalization with overlap
     ethr =  1.94E-08,  avg # of iterations =  2.3

     total cpu time spent up to now is     3491.0 secs

     total energy              =   -2510.37752251 Ry
     estimated scf accuracy    <       0.00002494 Ry

     total magnetization       =    -0.00 Bohr mag/cell
     absolute magnetization    =     0.00 Bohr mag/cell

     iteration #  4     ecut=    90.00 Ry     beta= 0.20
     Davidson diagonalization with overlap
     ethr =  1.89E-08,  avg # of iterations =  1.0

     total cpu time spent up to now is     3529.1 secs

     total energy              =   -2510.37752292 Ry
     estimated scf accuracy    <       0.00000013 Ry

     total magnetization       =    -0.00 Bohr mag/cell
     absolute magnetization    =     0.00 Bohr mag/cell

     iteration #  5     ecut=    90.00 Ry     beta= 0.20
     Davidson diagonalization with overlap
     ethr =  1.01E-10,  avg # of iterations =  5.0

     total cpu time spent up to now is     3598.5 secs

     total energy              =   -2510.37752293 Ry
     estimated scf accuracy    <       0.00000099 Ry

     total magnetization       =    -0.00 Bohr mag/cell
     absolute magnetization    =     0.00 Bohr mag/cell

     iteration #  6     ecut=    90.00 Ry     beta= 0.20
     Davidson diagonalization with overlap
     ethr =  1.01E-10,  avg # of iterations =  1.0

     total cpu time spent up to now is     3636.6 secs

     total energy              =   -2510.37752293 Ry
     estimated scf accuracy    <       0.00000069 Ry

     total magnetization       =    -0.00 Bohr mag/cell
     absolute magnetization    =     0.00 Bohr mag/cell

     iteration #  7     ecut=    90.00 Ry     beta= 0.20
     Davidson diagonalization with overlap
     ethr =  1.01E-10,  avg # of iterations =  1.0

     total cpu time spent up to now is     3674.7 secs

     total energy              =   -2510.37752292 Ry
     estimated scf accuracy    <       0.00000006 Ry

     total magnetization       =    -0.00 Bohr mag/cell
     absolute magnetization    =     0.00 Bohr mag/cell

     iteration #  8     ecut=    90.00 Ry     beta= 0.20
     Davidson diagonalization with overlap
     ethr =  4.49E-11,  avg # of iterations =  1.0

     total cpu time spent up to now is     3712.7 secs

     total energy              =   -2510.37752292 Ry
     estimated scf accuracy    <       0.00000006 Ry

     total magnetization       =    -0.00 Bohr mag/cell
     absolute magnetization    =     0.01 Bohr mag/cell

     iteration #  9     ecut=    90.00 Ry     beta= 0.20
     Davidson diagonalization with overlap
     ethr =  4.49E-11,  avg # of iterations =  1.0

     total cpu time spent up to now is     3750.8 secs

     total energy              =   -2510.37752293 Ry
     estimated scf accuracy    <       0.00000004 Ry

     total magnetization       =    -0.00 Bohr mag/cell
     absolute magnetization    =     0.01 Bohr mag/cell

     iteration # 10     ecut=    90.00 Ry     beta= 0.20
     Davidson diagonalization with overlap
     ethr =  3.32E-11,  avg # of iterations =  1.0

     total cpu time spent up to now is     3789.1 secs

     total energy              =   -2510.37752293 Ry
     estimated scf accuracy    <       0.00000006 Ry

     total magnetization       =    -0.00 Bohr mag/cell
     absolute magnetization    =     0.00 Bohr mag/cell

     iteration # 11     ecut=    90.00 Ry     beta= 0.20
     Davidson diagonalization with overlap
     ethr =  3.32E-11,  avg # of iterations =  1.0

     total cpu time spent up to now is     3827.3 secs

     total energy              =   -2510.37752291 Ry
     estimated scf accuracy    <       0.00000006 Ry

     total magnetization       =    -0.00 Bohr mag/cell
     absolute magnetization    =     0.00 Bohr mag/cell

     iteration # 12     ecut=    90.00 Ry     beta= 0.20
     Davidson diagonalization with overlap
     ethr =  3.32E-11,  avg # of iterations =  1.0

     total cpu time spent up to now is     3865.6 secs

     total energy              =   -2510.37752287 Ry
     estimated scf accuracy    <       0.00000004 Ry

     total magnetization       =    -0.00 Bohr mag/cell
     absolute magnetization    =     0.00 Bohr mag/cell

     iteration # 13     ecut=    90.00 Ry     beta= 0.20
     Davidson diagonalization with overlap
     ethr =  2.99E-11,  avg # of iterations =  1.0

     total cpu time spent up to now is     3904.0 secs

     total energy              =   -2510.37752283 Ry
     estimated scf accuracy    <       0.00000033 Ry

     total magnetization       =    -0.00 Bohr mag/cell
     absolute magnetization    =     0.00 Bohr mag/cell

     iteration # 14     ecut=    90.00 Ry     beta= 0.20
     Davidson diagonalization with overlap
     ethr =  2.99E-11,  avg # of iterations =  1.0

     Magnetic moment per site:
     atom:    1    charge:   14.0183    magn:   -0.0002    constr:    0.0000
     atom:    2    charge:   15.1686    magn:   -0.0005    constr:    0.0000
     atom:    3    charge:   14.0183    magn:   -0.0001    constr:    0.0000
     atom:    4    charge:   15.1686    magn:   -0.0003    constr:    0.0000
     atom:    5    charge:   14.0184    magn:   -0.0001    constr:    0.0000
     atom:    6    charge:   15.1687    magn:   -0.0000    constr:    0.0000
     atom:    7    charge:   14.0184    magn:    0.0000    constr:    0.0000
     atom:    8    charge:   15.1687    magn:    0.0006    constr:    0.0000

     total cpu time spent up to now is     3942.2 secs

     End of self-consistent calculation

     Number of k-points >= 100: set verbosity='high' to print the bands.

     the Fermi energy is    17.1659 ev

!    total energy              =   -2510.37752283 Ry
     estimated scf accuracy    <          3.7E-09 Ry
     smearing contrib. (-TS)   =      -0.01859752 Ry
     internal energy E=F+TS    =   -2510.35892531 Ry

     The total energy is F=E-TS. E is the sum of the following terms:
     one-electron contribution =   -1158.15567839 Ry
     hartree contribution      =     659.06164400 Ry
     xc contribution           =    -269.52619257 Ry
     ewald contribution        =   -1437.14084964 Ry
     one-center paw contrib.   =    -304.59784871 Ry

     total magnetization       =    -0.00 Bohr mag/cell
     absolute magnetization    =     0.00 Bohr mag/cell

     convergence has been achieved in  14 iterations

     Forces acting on atoms (cartesian axes, Ry/au):

     atom    1 type  1   force =     0.00110671    0.00016691   -0.00066798
     atom    2 type  2   force =     0.00042595   -0.00002053    0.00009259
     atom    3 type  1   force =     0.00110474    0.00016657   -0.00066666
     atom    4 type  2   force =     0.00042559   -0.00002202    0.00009572
     atom    5 type  1   force =    -0.00064814   -0.00010337    0.00040089
     atom    6 type  2   force =    -0.00088255   -0.00004337    0.00017053
     atom    7 type  1   force =    -0.00064965   -0.00010183    0.00040288
     atom    8 type  2   force =    -0.00088266   -0.00004235    0.00017201

     Total force =     0.002565     Total SCF correction =     0.000252


     Computing stress (Cartesian axis) and pressure

          total   stress  (Ry/bohr**3)                   (kbar)     P=        4.72
   0.00003230   0.00000009   0.00000623            4.75        0.01        0.92
   0.00000009   0.00003200   0.00000003            0.01        4.71        0.00
   0.00000623   0.00000003   0.00003196            0.92        0.00        4.70

     Energy error            =      5.5E-05
     Gradient error          =      1.1E-03

     number of scf cycles    =   2
     number of bfgs steps    =   1

     energy   old            =   -2510.3774676329 Ry
     energy   new            =   -2510.3775228333 Ry

     CASE: energy  _new < energy  _old


     WARNING: bfgs curvature condition failed, Theta= 0.777
     new trust radius        =       0.0134996354 bohr
     new conv_thr            =       0.0000000006 Ry


ATOMIC_POSITIONS (angstrom)
Fe            0.0067572420        2.2873372775       -0.0013500324
Co            2.2941045161        0.0105629884        2.2760519270
Fe            0.0181392191        0.0106359885        2.2753489865
Co            2.2827201932        2.2872621476       -0.0006452785
Fe            2.2622752441        0.0106993478        0.0083500949
Co            0.0159896609        2.2872666590        2.2760863757
Fe            2.2736559360        2.2874017915        2.2850499591
Co            0.0046068938        0.0105670691       -0.0006133213



     Writing output data file ./pwscf.save/
     NEW-OLD atomic charge density approx. for the potential

     Check: negative core charge=   -0.000013
     Generating pointlists ...

     total cpu time spent up to now is     3970.6 secs

     Self-consistent Calculation

     iteration #  1     ecut=    90.00 Ry     beta= 0.20
     Davidson diagonalization with overlap
     ethr =  1.00E-06,  avg # of iterations =  7.3

     Threshold (ethr) on eigenvalues was too large:
     Diagonalizing with lowered threshold

     Davidson diagonalization with overlap
     ethr =  5.52E-08,  avg # of iterations =  4.0

     total cpu time spent up to now is     4146.6 secs

     total energy              =   -2510.37761192 Ry
     estimated scf accuracy    <       0.00006593 Ry

     total magnetization       =    -0.00 Bohr mag/cell
     absolute magnetization    =     0.00 Bohr mag/cell

     iteration #  2     ecut=    90.00 Ry     beta= 0.20
     Davidson diagonalization with overlap
     ethr =  4.99E-08,  avg # of iterations =  2.0

     total cpu time spent up to now is     4190.7 secs

     total energy              =   -2510.37759880 Ry
     estimated scf accuracy    <       0.00014885 Ry

     total magnetization       =    -0.00 Bohr mag/cell
     absolute magnetization    =     0.00 Bohr mag/cell

     iteration #  3     ecut=    90.00 Ry     beta= 0.20
     Davidson diagonalization with overlap
     ethr =  4.99E-08,  avg # of iterations =  1.1

     total cpu time spent up to now is     4229.3 secs

     total energy              =   -2510.37757007 Ry
     estimated scf accuracy    <       0.00086165 Ry

     total magnetization       =    -0.00 Bohr mag/cell
     absolute magnetization    =     0.00 Bohr mag/cell

     iteration #  4     ecut=    90.00 Ry     beta= 0.20
     Davidson diagonalization with overlap
     ethr =  4.99E-08,  avg # of iterations =  1.3

     total cpu time spent up to now is     4268.9 secs

     total energy              =   -2510.37757292 Ry
     estimated scf accuracy    <       0.00027667 Ry

     total magnetization       =    -0.00 Bohr mag/cell
     absolute magnetization    =     0.00 Bohr mag/cell

     iteration #  5     ecut=    90.00 Ry     beta= 0.20
     Davidson diagonalization with overlap
     ethr =  4.99E-08,  avg # of iterations =  1.0

     total cpu time spent up to now is     4307.0 secs

     total energy              =   -2510.37757475 Ry
     estimated scf accuracy    <       0.00000521 Ry

     total magnetization       =    -0.00 Bohr mag/cell
     absolute magnetization    =     0.00 Bohr mag/cell

     iteration #  6     ecut=    90.00 Ry     beta= 0.20
     Davidson diagonalization with overlap
     ethr =  3.95E-09,  avg # of iterations =  2.1

     total cpu time spent up to now is     4351.0 secs

     total energy              =   -2510.37756094 Ry
     estimated scf accuracy    <       0.00000707 Ry

     total magnetization       =    -0.00 Bohr mag/cell
     absolute magnetization    =     0.00 Bohr mag/cell

     iteration #  7     ecut=    90.00 Ry     beta= 0.20
     Davidson diagonalization with overlap
     ethr =  3.95E-09,  avg # of iterations =  2.0

     total cpu time spent up to now is     4394.6 secs

     total energy              =   -2510.37755934 Ry
     estimated scf accuracy    <       0.00006581 Ry

     total magnetization       =    -0.00 Bohr mag/cell
     absolute magnetization    =     0.01 Bohr mag/cell

     iteration #  8     ecut=    90.00 Ry     beta= 0.20
     Davidson diagonalization with overlap
     ethr =  3.95E-09,  avg # of iterations =  1.0

     total cpu time spent up to now is     4432.7 secs

     total energy              =   -2510.37755971 Ry
     estimated scf accuracy    <       0.00000031 Ry

     total magnetization       =    -0.00 Bohr mag/cell
     absolute magnetization    =     0.01 Bohr mag/cell

     iteration #  9     ecut=    90.00 Ry     beta= 0.20
     Davidson diagonalization with overlap
     ethr =  2.35E-10,  avg # of iterations =  5.0

     total cpu time spent up to now is     4490.8 secs

     total energy              =   -2510.37755911 Ry
     estimated scf accuracy    <       0.00000196 Ry

     total magnetization       =    -0.00 Bohr mag/cell
     absolute magnetization    =     0.01 Bohr mag/cell

     iteration # 10     ecut=    90.00 Ry     beta= 0.20
     Davidson diagonalization with overlap
     ethr =  2.35E-10,  avg # of iterations =  2.0

     total cpu time spent up to now is     4537.0 secs

     total energy              =   -2510.37755918 Ry
     estimated scf accuracy    <       0.00000021 Ry

     total magnetization       =    -0.00 Bohr mag/cell
     absolute magnetization    =     0.01 Bohr mag/cell

     iteration # 11     ecut=    90.00 Ry     beta= 0.20
     Davidson diagonalization with overlap
     ethr =  1.60E-10,  avg # of iterations =  2.0

     total cpu time spent up to now is     4581.6 secs

     total energy              =   -2510.37755916 Ry
     estimated scf accuracy    <       0.00000333 Ry

     total magnetization       =    -0.00 Bohr mag/cell
     absolute magnetization    =     0.01 Bohr mag/cell

     iteration # 12     ecut=    90.00 Ry     beta= 0.20
     Davidson diagonalization with overlap
     ethr =  1.60E-10,  avg # of iterations =  1.0

     total cpu time spent up to now is     4620.0 secs

     total energy              =   -2510.37755914 Ry
     estimated scf accuracy    <       0.00000009 Ry

     total magnetization       =    -0.00 Bohr mag/cell
     absolute magnetization    =     0.01 Bohr mag/cell

     iteration # 13     ecut=    90.00 Ry     beta= 0.20
     Davidson diagonalization with overlap
     ethr =  6.69E-11,  avg # of iterations =  1.0

     total cpu time spent up to now is     4658.4 secs

     total energy              =   -2510.37755909 Ry
     estimated scf accuracy    <       0.00000038 Ry

     total magnetization       =    -0.01 Bohr mag/cell
     absolute magnetization    =     0.01 Bohr mag/cell

     iteration # 14     ecut=    90.00 Ry     beta= 0.20
     Davidson diagonalization with overlap
     ethr =  6.69E-11,  avg # of iterations =  1.0

     total cpu time spent up to now is     4696.8 secs

     total energy              =   -2510.37755909 Ry
     estimated scf accuracy    <       0.00000010 Ry

     total magnetization       =    -0.01 Bohr mag/cell
     absolute magnetization    =     0.01 Bohr mag/cell

     iteration # 15     ecut=    90.00 Ry     beta= 0.20
     Davidson diagonalization with overlap
     ethr =  6.69E-11,  avg # of iterations =  1.0

     total cpu time spent up to now is     4735.1 secs

     total energy              =   -2510.37755909 Ry
     estimated scf accuracy    <       0.00000008 Ry

     total magnetization       =    -0.01 Bohr mag/cell
     absolute magnetization    =     0.01 Bohr mag/cell

     iteration # 16     ecut=    90.00 Ry     beta= 0.20
     Davidson diagonalization with overlap
     ethr =  6.01E-11,  avg # of iterations =  1.0

     total cpu time spent up to now is     4773.5 secs

     total energy              =   -2510.37755909 Ry
     estimated scf accuracy    <       0.00000009 Ry

     total magnetization       =    -0.01 Bohr mag/cell
     absolute magnetization    =     0.01 Bohr mag/cell

     iteration # 17     ecut=    90.00 Ry     beta= 0.20
     Davidson diagonalization with overlap
     ethr =  6.01E-11,  avg # of iterations =  1.0

     total cpu time spent up to now is     4811.8 secs

     total energy              =   -2510.37755913 Ry
     estimated scf accuracy    <       0.00000039 Ry

     total magnetization       =    -0.01 Bohr mag/cell
     absolute magnetization    =     0.01 Bohr mag/cell

     iteration # 18     ecut=    90.00 Ry     beta= 0.20
     Davidson diagonalization with overlap
     ethr =  6.01E-11,  avg # of iterations =  1.0

     total cpu time spent up to now is     4850.1 secs

     total energy              =   -2510.37755912 Ry
     estimated scf accuracy    <       0.00000011 Ry

     total magnetization       =    -0.01 Bohr mag/cell
     absolute magnetization    =     0.01 Bohr mag/cell

     iteration # 19     ecut=    90.00 Ry     beta= 0.20
     Davidson diagonalization with overlap
     ethr =  6.01E-11,  avg # of iterations =  1.0

     total cpu time spent up to now is     4888.5 secs

     total energy              =   -2510.37755912 Ry
     estimated scf accuracy    <       0.00000037 Ry

     total magnetization       =    -0.00 Bohr mag/cell
     absolute magnetization    =     0.01 Bohr mag/cell

     iteration # 20     ecut=    90.00 Ry     beta= 0.20
     Davidson diagonalization with overlap
     ethr =  6.01E-11,  avg # of iterations =  1.0

     total cpu time spent up to now is     4926.9 secs

     total energy              =   -2510.37755914 Ry
     estimated scf accuracy    <       0.00000007 Ry

     total magnetization       =    -0.00 Bohr mag/cell
     absolute magnetization    =     0.01 Bohr mag/cell

     iteration # 21     ecut=    90.00 Ry     beta= 0.20
     Davidson diagonalization with overlap
     ethr =  5.19E-11,  avg # of iterations =  1.0

     total cpu time spent up to now is     4965.2 secs

     total energy              =   -2510.37755909 Ry
     estimated scf accuracy    <       0.00000018 Ry

     total magnetization       =    -0.00 Bohr mag/cell
     absolute magnetization    =     0.01 Bohr mag/cell

     iteration # 22     ecut=    90.00 Ry     beta= 0.20
     Davidson diagonalization with overlap
     ethr =  5.19E-11,  avg # of iterations =  1.0

     total cpu time spent up to now is     5003.6 secs

     total energy              =   -2510.37755906 Ry
     estimated scf accuracy    <       0.00000107 Ry

     total magnetization       =    -0.00 Bohr mag/cell
     absolute magnetization    =     0.01 Bohr mag/cell

     iteration # 23     ecut=    90.00 Ry     beta= 0.20
     Davidson diagonalization with overlap
     ethr =  5.19E-11,  avg # of iterations =  1.0

     total cpu time spent up to now is     5042.0 secs

     total energy              =   -2510.37755907 Ry
     estimated scf accuracy    <       0.00000014 Ry

     total magnetization       =    -0.00 Bohr mag/cell
     absolute magnetization    =     0.01 Bohr mag/cell

     iteration # 24     ecut=    90.00 Ry     beta= 0.20
     Davidson diagonalization with overlap
     ethr =  5.19E-11,  avg # of iterations =  1.0

     total cpu time spent up to now is     5080.3 secs

     total energy              =   -2510.37755905 Ry
     estimated scf accuracy    <       0.00000004 Ry

     total magnetization       =    -0.00 Bohr mag/cell
     absolute magnetization    =     0.01 Bohr mag/cell

     iteration # 25     ecut=    90.00 Ry     beta= 0.20
     Davidson diagonalization with overlap
     ethr =  3.00E-11,  avg # of iterations =  1.0

     total cpu time spent up to now is     5118.7 secs

     total energy              =   -2510.37755900 Ry
     estimated scf accuracy    <       0.00000007 Ry

     total magnetization       =    -0.00 Bohr mag/cell
     absolute magnetization    =     0.01 Bohr mag/cell

     iteration # 26     ecut=    90.00 Ry     beta= 0.20
     Davidson diagonalization with overlap
     ethr =  3.00E-11,  avg # of iterations =  1.0

     total cpu time spent up to now is     5157.0 secs

     total energy              =   -2510.37755901 Ry
     estimated scf accuracy    <       0.00000004 Ry

     total magnetization       =     0.00 Bohr mag/cell
     absolute magnetization    =     0.01 Bohr mag/cell

     iteration # 27     ecut=    90.00 Ry     beta= 0.20
     Davidson diagonalization with overlap
     ethr =  2.78E-11,  avg # of iterations =  1.0

     total cpu time spent up to now is     5195.3 secs

     total energy              =   -2510.37755901 Ry
     estimated scf accuracy    <       0.00000012 Ry

     total magnetization       =     0.00 Bohr mag/cell
     absolute magnetization    =     0.01 Bohr mag/cell

     iteration # 28     ecut=    90.00 Ry     beta= 0.20
     Davidson diagonalization with overlap
     ethr =  2.78E-11,  avg # of iterations =  1.0

     total cpu time spent up to now is     5233.7 secs

     total energy              =   -2510.37755901 Ry
     estimated scf accuracy    <       0.00000002 Ry

     total magnetization       =     0.00 Bohr mag/cell
     absolute magnetization    =     0.01 Bohr mag/cell

     iteration # 29     ecut=    90.00 Ry     beta= 0.20
     Davidson diagonalization with overlap
     ethr =  1.56E-11,  avg # of iterations =  1.0

     total cpu time spent up to now is     5272.0 secs

     total energy              =   -2510.37755901 Ry
     estimated scf accuracy    <       0.00000002 Ry

     total magnetization       =     0.00 Bohr mag/cell
     absolute magnetization    =     0.01 Bohr mag/cell

     iteration # 30     ecut=    90.00 Ry     beta= 0.20
     Davidson diagonalization with overlap
     ethr =  1.56E-11,  avg # of iterations =  1.0

     total cpu time spent up to now is     5310.3 secs

     total energy              =   -2510.37755901 Ry
     estimated scf accuracy    <       0.00000002 Ry

     total magnetization       =     0.00 Bohr mag/cell
     absolute magnetization    =     0.01 Bohr mag/cell

     iteration # 31     ecut=    90.00 Ry     beta= 0.20
     Davidson diagonalization with overlap
     ethr =  1.56E-11,  avg # of iterations =  1.0

     total cpu time spent up to now is     5348.7 secs

     total energy              =   -2510.37755901 Ry
     estimated scf accuracy    <       0.00000004 Ry

     total magnetization       =     0.00 Bohr mag/cell
     absolute magnetization    =     0.01 Bohr mag/cell

     iteration # 32     ecut=    90.00 Ry     beta= 0.20
     Davidson diagonalization with overlap
     ethr =  1.56E-11,  avg # of iterations =  1.0

     total cpu time spent up to now is     5387.0 secs

     total energy              =   -2510.37755901 Ry
     estimated scf accuracy    <       0.00000006 Ry

     total magnetization       =     0.00 Bohr mag/cell
     absolute magnetization    =     0.01 Bohr mag/cell

     iteration # 33     ecut=    90.00 Ry     beta= 0.20
     Davidson diagonalization with overlap
     ethr =  1.56E-11,  avg # of iterations =  1.0

     total cpu time spent up to now is     5425.4 secs

     total energy              =   -2510.37755901 Ry
     estimated scf accuracy    <       0.00000002 Ry

     total magnetization       =     0.00 Bohr mag/cell
     absolute magnetization    =     0.01 Bohr mag/cell

     iteration # 34     ecut=    90.00 Ry     beta= 0.20
     Davidson diagonalization with overlap
     ethr =  1.56E-11,  avg # of iterations =  1.0

     total cpu time spent up to now is     5463.7 secs

     total energy              =   -2510.37755901 Ry
     estimated scf accuracy    <       0.00000002 Ry

     total magnetization       =     0.00 Bohr mag/cell
     absolute magnetization    =     0.01 Bohr mag/cell

     iteration # 35     ecut=    90.00 Ry     beta= 0.20
     Davidson diagonalization with overlap
     ethr =  1.51E-11,  avg # of iterations =  1.0

     total cpu time spent up to now is     5502.0 secs

     total energy              =   -2510.37755900 Ry
     estimated scf accuracy    <       0.00000002 Ry

     total magnetization       =     0.00 Bohr mag/cell
     absolute magnetization    =     0.01 Bohr mag/cell

     iteration # 36     ecut=    90.00 Ry     beta= 0.20
     Davidson diagonalization with overlap
     ethr =  1.51E-11,  avg # of iterations =  1.0

     total cpu time spent up to now is     5540.4 secs

     total energy              =   -2510.37755900 Ry
     estimated scf accuracy    <       0.00000003 Ry

     total magnetization       =     0.00 Bohr mag/cell
     absolute magnetization    =     0.01 Bohr mag/cell

     iteration # 37     ecut=    90.00 Ry     beta= 0.20
     Davidson diagonalization with overlap
     ethr =  1.51E-11,  avg # of iterations =  1.0

     total cpu time spent up to now is     5578.7 secs

     total energy              =   -2510.37755900 Ry
     estimated scf accuracy    <       0.00000002 Ry

     total magnetization       =     0.00 Bohr mag/cell
     absolute magnetization    =     0.01 Bohr mag/cell

     iteration # 38     ecut=    90.00 Ry     beta= 0.20
     Davidson diagonalization with overlap
     ethr =  1.51E-11,  avg # of iterations =  1.0

     total cpu time spent up to now is     5617.0 secs

     total energy              =   -2510.37755899 Ry
     estimated scf accuracy    <       0.00000003 Ry

     total magnetization       =     0.00 Bohr mag/cell
     absolute magnetization    =     0.01 Bohr mag/cell

     iteration # 39     ecut=    90.00 Ry     beta= 0.20
     Davidson diagonalization with overlap
     ethr =  1.51E-11,  avg # of iterations =  1.0

     total cpu time spent up to now is     5655.4 secs

     total energy              =   -2510.37755898 Ry
     estimated scf accuracy    <       0.00000004 Ry

     total magnetization       =     0.00 Bohr mag/cell
     absolute magnetization    =     0.01 Bohr mag/cell

     iteration # 40     ecut=    90.00 Ry     beta= 0.20
     Davidson diagonalization with overlap
     ethr =  1.51E-11,  avg # of iterations =  1.0

     total cpu time spent up to now is     5693.7 secs

     total energy              =   -2510.37755898 Ry
     estimated scf accuracy    <       0.00000002 Ry

     total magnetization       =     0.00 Bohr mag/cell
     absolute magnetization    =     0.01 Bohr mag/cell

     iteration # 41     ecut=    90.00 Ry     beta= 0.20
     Davidson diagonalization with overlap
     ethr =  1.51E-11,  avg # of iterations =  1.0

     total cpu time spent up to now is     5732.1 secs

     total energy              =   -2510.37755898 Ry
     estimated scf accuracy    <       0.00000004 Ry

     total magnetization       =     0.00 Bohr mag/cell
     absolute magnetization    =     0.01 Bohr mag/cell

     iteration # 42     ecut=    90.00 Ry     beta= 0.20
     Davidson diagonalization with overlap
     ethr =  1.51E-11,  avg # of iterations =  1.0

     total cpu time spent up to now is     5770.4 secs

     total energy              =   -2510.37755898 Ry
     estimated scf accuracy    <       0.00000004 Ry

     total magnetization       =     0.00 Bohr mag/cell
     absolute magnetization    =     0.01 Bohr mag/cell

     iteration # 43     ecut=    90.00 Ry     beta= 0.20
     Davidson diagonalization with overlap
     ethr =  1.51E-11,  avg # of iterations =  1.0

     total cpu time spent up to now is     5808.7 secs

     total energy              =   -2510.37755898 Ry
     estimated scf accuracy    <       0.00000002 Ry

     total magnetization       =    -0.00 Bohr mag/cell
     absolute magnetization    =     0.01 Bohr mag/cell

     iteration # 44     ecut=    90.00 Ry     beta= 0.20
     Davidson diagonalization with overlap
     ethr =  1.31E-11,  avg # of iterations =  1.0

     total cpu time spent up to now is     5847.0 secs

     total energy              =   -2510.37755898 Ry
     estimated scf accuracy    <       0.00000002 Ry

     total magnetization       =    -0.00 Bohr mag/cell
     absolute magnetization    =     0.01 Bohr mag/cell

     iteration # 45     ecut=    90.00 Ry     beta= 0.20
     Davidson diagonalization with overlap
     ethr =  1.31E-11,  avg # of iterations =  1.0

     total cpu time spent up to now is     5885.4 secs

     total energy              =   -2510.37755898 Ry
     estimated scf accuracy    <       0.00000002 Ry

     total magnetization       =     0.00 Bohr mag/cell
     absolute magnetization    =     0.01 Bohr mag/cell

     iteration # 46     ecut=    90.00 Ry     beta= 0.20
     Davidson diagonalization with overlap
     ethr =  1.31E-11,  avg # of iterations =  1.0

     total cpu time spent up to now is     5923.7 secs

     total energy              =   -2510.37755898 Ry
     estimated scf accuracy    <       0.00000003 Ry

     total magnetization       =    -0.00 Bohr mag/cell
     absolute magnetization    =     0.01 Bohr mag/cell

     iteration # 47     ecut=    90.00 Ry     beta= 0.20
     Davidson diagonalization with overlap
     ethr =  1.31E-11,  avg # of iterations =  1.0

     total cpu time spent up to now is     5962.8 secs

     total energy              =   -2510.37755898 Ry
     estimated scf accuracy    <       0.00000004 Ry

     total magnetization       =    -0.00 Bohr mag/cell
     absolute magnetization    =     0.01 Bohr mag/cell

     iteration # 48     ecut=    90.00 Ry     beta= 0.20
     Davidson diagonalization with overlap
     ethr =  1.31E-11,  avg # of iterations =  1.0

     total cpu time spent up to now is     6001.1 secs

     total energy              =   -2510.37755898 Ry
     estimated scf accuracy    <       0.00000002 Ry

     total magnetization       =    -0.00 Bohr mag/cell
     absolute magnetization    =     0.01 Bohr mag/cell

     iteration # 49     ecut=    90.00 Ry     beta= 0.20
     Davidson diagonalization with overlap
     ethr =  1.31E-11,  avg # of iterations =  1.0

     total cpu time spent up to now is     6039.4 secs

     total energy              =   -2510.37755898 Ry
     estimated scf accuracy    <       0.00000006 Ry

     total magnetization       =    -0.00 Bohr mag/cell
     absolute magnetization    =     0.01 Bohr mag/cell

     iteration # 50     ecut=    90.00 Ry     beta= 0.20
     Davidson diagonalization with overlap
     ethr =  1.31E-11,  avg # of iterations =  1.2

     total cpu time spent up to now is     6078.6 secs

     total energy              =   -2510.37755897 Ry
     estimated scf accuracy    <       0.00000002 Ry

     total magnetization       =    -0.00 Bohr mag/cell
     absolute magnetization    =     0.00 Bohr mag/cell

     iteration # 51     ecut=    90.00 Ry     beta= 0.20
     Davidson diagonalization with overlap
     ethr =  1.24E-11,  avg # of iterations =  1.1

     total cpu time spent up to now is     6117.3 secs

     total energy              =   -2510.37755897 Ry
     estimated scf accuracy    <       0.00000006 Ry

     total magnetization       =    -0.00 Bohr mag/cell
     absolute magnetization    =     0.00 Bohr mag/cell

     iteration # 52     ecut=    90.00 Ry     beta= 0.20
     Davidson diagonalization with overlap
     ethr =  1.24E-11,  avg # of iterations =  1.0

     total cpu time spent up to now is     6155.7 secs

     total energy              =   -2510.37755897 Ry
     estimated scf accuracy    <       0.00000007 Ry

     total magnetization       =    -0.00 Bohr mag/cell
     absolute magnetization    =     0.00 Bohr mag/cell

     iteration # 53     ecut=    90.00 Ry     beta= 0.20
     Davidson diagonalization with overlap
     ethr =  1.24E-11,  avg # of iterations =  1.0

     total cpu time spent up to now is     6193.9 secs

     total energy              =   -2510.37755897 Ry
     estimated scf accuracy    <       0.00000002 Ry

     total magnetization       =    -0.00 Bohr mag/cell
     absolute magnetization    =     0.00 Bohr mag/cell

     iteration # 54     ecut=    90.00 Ry     beta= 0.20
     Davidson diagonalization with overlap
     ethr =  1.24E-11,  avg # of iterations =  1.0

     total cpu time spent up to now is     6232.2 secs

     total energy              =   -2510.37755897 Ry
     estimated scf accuracy    <       0.00000001 Ry

     total magnetization       =    -0.00 Bohr mag/cell
     absolute magnetization    =     0.00 Bohr mag/cell

     iteration # 55     ecut=    90.00 Ry     beta= 0.20
     Davidson diagonalization with overlap
     ethr =  1.09E-11,  avg # of iterations =  1.0

     total cpu time spent up to now is     6270.5 secs

     total energy              =   -2510.37755897 Ry
     estimated scf accuracy    <          8.2E-09 Ry

     total magnetization       =    -0.00 Bohr mag/cell
     absolute magnetization    =     0.00 Bohr mag/cell

     iteration # 56     ecut=    90.00 Ry     beta= 0.20
     Davidson diagonalization with overlap
     ethr =  6.20E-12,  avg # of iterations =  1.0

     total cpu time spent up to now is     6308.8 secs

     total energy              =   -2510.37755897 Ry
     estimated scf accuracy    <       0.00000002 Ry

     total magnetization       =    -0.00 Bohr mag/cell
     absolute magnetization    =     0.00 Bohr mag/cell

     iteration # 57     ecut=    90.00 Ry     beta= 0.20
     Davidson diagonalization with overlap
     ethr =  6.20E-12,  avg # of iterations =  1.0

     total cpu time spent up to now is     6347.0 secs

     total energy              =   -2510.37755897 Ry
     estimated scf accuracy    <       0.00000001 Ry

     total magnetization       =    -0.00 Bohr mag/cell
     absolute magnetization    =     0.00 Bohr mag/cell

     iteration # 58     ecut=    90.00 Ry     beta= 0.20
     Davidson diagonalization with overlap
     ethr =  6.20E-12,  avg # of iterations =  1.0

     total cpu time spent up to now is     6385.3 secs

     total energy              =   -2510.37755897 Ry
     estimated scf accuracy    <       0.00000001 Ry

     total magnetization       =    -0.00 Bohr mag/cell
     absolute magnetization    =     0.00 Bohr mag/cell

     iteration # 59     ecut=    90.00 Ry     beta= 0.20
     Davidson diagonalization with overlap
     ethr =  6.20E-12,  avg # of iterations =  1.0

     total cpu time spent up to now is     6423.6 secs

     total energy              =   -2510.37755897 Ry
     estimated scf accuracy    <       0.00000002 Ry

     total magnetization       =    -0.00 Bohr mag/cell
     absolute magnetization    =     0.00 Bohr mag/cell

[...]
     estimated scf accuracy    <          4.6E-09 Ry

     total magnetization       =     0.00 Bohr mag/cell
     absolute magnetization    =     0.00 Bohr mag/cell

     iteration # 39     ecut=    90.00 Ry     beta= 0.20
     Davidson diagonalization with overlap
     ethr =  2.11E-12,  avg # of iterations =  1.0

     total cpu time spent up to now is     9192.9 secs

     total energy              =   -2510.37769543 Ry
     estimated scf accuracy    <          4.9E-09 Ry

     total magnetization       =     0.00 Bohr mag/cell
     absolute magnetization    =     0.00 Bohr mag/cell

     iteration # 40     ecut=    90.00 Ry     beta= 0.20
     Davidson diagonalization with overlap
     ethr =  2.11E-12,  avg # of iterations =  1.0

     total cpu time spent up to now is     9230.5 secs

     total energy              =   -2510.37769543 Ry
     estimated scf accuracy    <          4.0E-09 Ry

     total magnetization       =     0.00 Bohr mag/cell
     absolute magnetization    =     0.00 Bohr mag/cell

     iteration # 41     ecut=    90.00 Ry     beta= 0.20
     Davidson diagonalization with overlap
     ethr =  2.11E-12,  avg # of iterations =  1.0

     total cpu time spent up to now is     9268.2 secs

     total energy              =   -2510.37769543 Ry
     estimated scf accuracy    <          3.4E-09 Ry

     total magnetization       =     0.00 Bohr mag/cell
     absolute magnetization    =     0.00 Bohr mag/cell

     iteration # 42     ecut=    90.00 Ry     beta= 0.20
     Davidson diagonalization with overlap
     ethr =  2.11E-12,  avg # of iterations =  1.0

     total cpu time spent up to now is     9305.8 secs

     total energy              =   -2510.37769543 Ry
     estimated scf accuracy    <          4.2E-09 Ry

     total magnetization       =     0.00 Bohr mag/cell
     absolute magnetization    =     0.00 Bohr mag/cell

     iteration # 43     ecut=    90.00 Ry     beta= 0.20
     Davidson diagonalization with overlap
     ethr =  2.11E-12,  avg # of iterations =  1.0

     total cpu time spent up to now is     9343.4 secs

     total energy              =   -2510.37769543 Ry
     estimated scf accuracy    <          7.0E-09 Ry

     total magnetization       =     0.00 Bohr mag/cell
     absolute magnetization    =     0.00 Bohr mag/cell

     iteration # 44     ecut=    90.00 Ry     beta= 0.20
     Davidson diagonalization with overlap
     ethr =  2.11E-12,  avg # of iterations =  1.0

     total cpu time spent up to now is     9381.0 secs

     total energy              =   -2510.37769543 Ry
     estimated scf accuracy    <          4.1E-09 Ry

     total magnetization       =     0.00 Bohr mag/cell
     absolute magnetization    =     0.00 Bohr mag/cell

     iteration # 45     ecut=    90.00 Ry     beta= 0.20
     Davidson diagonalization with overlap
     ethr =  2.11E-12,  avg # of iterations =  1.0

     total cpu time spent up to now is     9418.7 secs

     total energy              =   -2510.37769543 Ry
     estimated scf accuracy    <          4.1E-09 Ry

     total magnetization       =     0.00 Bohr mag/cell
     absolute magnetization    =     0.00 Bohr mag/cell

     iteration # 46     ecut=    90.00 Ry     beta= 0.20
     Davidson diagonalization with overlap
     ethr =  2.11E-12,  avg # of iterations =  1.0

     total cpu time spent up to now is     9456.3 secs

     total energy              =   -2510.37769543 Ry
     estimated scf accuracy    <          4.4E-09 Ry

     total magnetization       =     0.00 Bohr mag/cell
     absolute magnetization    =     0.00 Bohr mag/cell

     iteration # 47     ecut=    90.00 Ry     beta= 0.20
     Davidson diagonalization with overlap
     ethr =  2.11E-12,  avg # of iterations =  1.0

     total cpu time spent up to now is     9494.0 secs

     total energy              =   -2510.37769543 Ry
     estimated scf accuracy    <          6.9E-09 Ry

     total magnetization       =     0.00 Bohr mag/cell
     absolute magnetization    =     0.00 Bohr mag/cell

     iteration # 48     ecut=    90.00 Ry     beta= 0.20
     Davidson diagonalization with overlap
     ethr =  2.11E-12,  avg # of iterations =  1.0

     total cpu time spent up to now is     9531.6 secs

     total energy              =   -2510.37769543 Ry
     estimated scf accuracy    <       0.00000001 Ry

     total magnetization       =     0.00 Bohr mag/cell
     absolute magnetization    =     0.00 Bohr mag/cell

     iteration # 49     ecut=    90.00 Ry     beta= 0.20
     Davidson diagonalization with overlap
     ethr =  2.11E-12,  avg # of iterations =  1.0

     total cpu time spent up to now is     9570.7 secs

     total energy              =   -2510.37769543 Ry
     estimated scf accuracy    <          3.9E-09 Ry

     total magnetization       =     0.00 Bohr mag/cell
     absolute magnetization    =     0.00 Bohr mag/cell

     iteration # 50     ecut=    90.00 Ry     beta= 0.20
     Davidson diagonalization with overlap
     ethr =  2.11E-12,  avg # of iterations =  1.0

     total cpu time spent up to now is     9608.9 secs

     total energy              =   -2510.37769543 Ry
     estimated scf accuracy    <          3.4E-09 Ry

     total magnetization       =     0.00 Bohr mag/cell
     absolute magnetization    =     0.00 Bohr mag/cell

     iteration # 51     ecut=    90.00 Ry     beta= 0.20
     Davidson diagonalization with overlap
     ethr =  2.11E-12,  avg # of iterations =  1.0

     total cpu time spent up to now is     9647.1 secs

     total energy              =   -2510.37769543 Ry
     estimated scf accuracy    <          3.9E-09 Ry

     total magnetization       =     0.00 Bohr mag/cell
     absolute magnetization    =     0.00 Bohr mag/cell

     iteration # 52     ecut=    90.00 Ry     beta= 0.20
     Davidson diagonalization with overlap
     ethr =  2.11E-12,  avg # of iterations =  1.0

     total cpu time spent up to now is     9685.4 secs

     total energy              =   -2510.37769543 Ry
     estimated scf accuracy    <          6.5E-09 Ry

     total magnetization       =     0.00 Bohr mag/cell
     absolute magnetization    =     0.00 Bohr mag/cell

     iteration # 53     ecut=    90.00 Ry     beta= 0.20
     Davidson diagonalization with overlap
     ethr =  2.11E-12,  avg # of iterations =  1.0

     total cpu time spent up to now is     9723.6 secs

     total energy              =   -2510.37769543 Ry
     estimated scf accuracy    <       0.00000002 Ry

     total magnetization       =     0.00 Bohr mag/cell
     absolute magnetization    =     0.00 Bohr mag/cell

     iteration # 54     ecut=    90.00 Ry     beta= 0.20
     Davidson diagonalization with overlap
     ethr =  2.11E-12,  avg # of iterations =  1.0

     total cpu time spent up to now is     9762.0 secs

     total energy              =   -2510.37769543 Ry
     estimated scf accuracy    <       0.00000001 Ry

     total magnetization       =     0.00 Bohr mag/cell
     absolute magnetization    =     0.00 Bohr mag/cell

     iteration # 55     ecut=    90.00 Ry     beta= 0.20
     Davidson diagonalization with overlap
     ethr =  2.11E-12,  avg # of iterations =  1.1

     total cpu time spent up to now is     9800.5 secs

     total energy              =   -2510.37769543 Ry
     estimated scf accuracy    <          3.6E-09 Ry

     total magnetization       =     0.00 Bohr mag/cell
     absolute magnetization    =     0.00 Bohr mag/cell

     iteration # 56     ecut=    90.00 Ry     beta= 0.20
     Davidson diagonalization with overlap
     ethr =  2.11E-12,  avg # of iterations =  1.0

     total cpu time spent up to now is     9838.8 secs

     total energy              =   -2510.37769543 Ry
     estimated scf accuracy    <          9.6E-09 Ry

     total magnetization       =     0.00 Bohr mag/cell
     absolute magnetization    =     0.00 Bohr mag/cell

     iteration # 57     ecut=    90.00 Ry     beta= 0.20
     Davidson diagonalization with overlap
     ethr =  2.11E-12,  avg # of iterations =  1.0

     total cpu time spent up to now is     9877.0 secs

     total energy              =   -2510.37769543 Ry
     estimated scf accuracy    <          8.0E-09 Ry

     total magnetization       =     0.00 Bohr mag/cell
     absolute magnetization    =     0.00 Bohr mag/cell

     iteration # 58     ecut=    90.00 Ry     beta= 0.20
     Davidson diagonalization with overlap
     ethr =  2.11E-12,  avg # of iterations =  1.0

     total cpu time spent up to now is     9915.3 secs

     total energy              =   -2510.37769543 Ry
     estimated scf accuracy    <       0.00000001 Ry

     total magnetization       =     0.00 Bohr mag/cell
     absolute magnetization    =     0.00 Bohr mag/cell

     iteration # 59     ecut=    90.00 Ry     beta= 0.20
     Davidson diagonalization with overlap
     ethr =  2.11E-12,  avg # of iterations =  1.0

     total cpu time spent up to now is     9953.6 secs

     total energy              =   -2510.37769543 Ry
     estimated scf accuracy    <          3.8E-09 Ry

     total magnetization       =    -0.00 Bohr mag/cell
     absolute magnetization    =     0.00 Bohr mag/cell

     iteration # 60     ecut=    90.00 Ry     beta= 0.20
     Davidson diagonalization with overlap
     ethr =  2.11E-12,  avg # of iterations =  1.0

     total cpu time spent up to now is     9991.8 secs

     total energy              =   -2510.37769543 Ry
     estimated scf accuracy    <          1.6E-09 Ry

     total magnetization       =    -0.00 Bohr mag/cell
     absolute magnetization    =     0.00 Bohr mag/cell

     iteration # 61     ecut=    90.00 Ry     beta= 0.20
     Davidson diagonalization with overlap
     ethr =  1.22E-12,  avg # of iterations =  1.0

     total cpu time spent up to now is    10030.0 secs

     total energy              =   -2510.37769543 Ry
     estimated scf accuracy    <          1.3E-09 Ry

     total magnetization       =    -0.00 Bohr mag/cell
     absolute magnetization    =     0.00 Bohr mag/cell

     iteration # 62     ecut=    90.00 Ry     beta= 0.20
     Davidson diagonalization with overlap
     ethr =  9.89E-13,  avg # of iterations =  1.0

     total cpu time spent up to now is    10068.2 secs

     total energy              =   -2510.37769543 Ry
     estimated scf accuracy    <          1.5E-09 Ry

     total magnetization       =    -0.00 Bohr mag/cell
     absolute magnetization    =     0.00 Bohr mag/cell

     iteration # 63     ecut=    90.00 Ry     beta= 0.20
     Davidson diagonalization with overlap
     ethr =  9.89E-13,  avg # of iterations =  1.0

     total cpu time spent up to now is    10106.4 secs

     total energy              =   -2510.37769543 Ry
     estimated scf accuracy    <          1.2E-09 Ry

     total magnetization       =    -0.00 Bohr mag/cell
     absolute magnetization    =     0.00 Bohr mag/cell

     iteration # 64     ecut=    90.00 Ry     beta= 0.20
     Davidson diagonalization with overlap
     ethr =  9.11E-13,  avg # of iterations =  1.0

     total cpu time spent up to now is    10144.6 secs

     total energy              =   -2510.37769543 Ry
     estimated scf accuracy    <          1.1E-09 Ry

     total magnetization       =    -0.00 Bohr mag/cell
     absolute magnetization    =     0.00 Bohr mag/cell

     iteration # 65     ecut=    90.00 Ry     beta= 0.20
     Davidson diagonalization with overlap
     ethr =  8.51E-13,  avg # of iterations =  1.0

     total cpu time spent up to now is    10182.8 secs

     total energy              =   -2510.37769543 Ry
     estimated scf accuracy    <          1.1E-09 Ry

     total magnetization       =    -0.00 Bohr mag/cell
     absolute magnetization    =     0.00 Bohr mag/cell

     iteration # 66     ecut=    90.00 Ry     beta= 0.20
     Davidson diagonalization with overlap
     ethr =  8.51E-13,  avg # of iterations =  1.0

     total cpu time spent up to now is    10221.1 secs

     total energy              =   -2510.37769543 Ry
     estimated scf accuracy    <          1.7E-09 Ry

     total magnetization       =    -0.00 Bohr mag/cell
     absolute magnetization    =     0.00 Bohr mag/cell

     iteration # 67     ecut=    90.00 Ry     beta= 0.20
     Davidson diagonalization with overlap
     ethr =  8.51E-13,  avg # of iterations =  1.0

     total cpu time spent up to now is    10259.3 secs

     total energy              =   -2510.37769543 Ry
     estimated scf accuracy    <          1.9E-09 Ry

     total magnetization       =    -0.00 Bohr mag/cell
     absolute magnetization    =     0.00 Bohr mag/cell

     iteration # 68     ecut=    90.00 Ry     beta= 0.20
     Davidson diagonalization with overlap
     ethr =  8.51E-13,  avg # of iterations =  1.0

     total cpu time spent up to now is    10297.5 secs

     total energy              =   -2510.37769543 Ry
     estimated scf accuracy    <          2.1E-09 Ry

     total magnetization       =    -0.00 Bohr mag/cell
     absolute magnetization    =     0.00 Bohr mag/cell

     iteration # 69     ecut=    90.00 Ry     beta= 0.20
     Davidson diagonalization with overlap
     ethr =  8.51E-13,  avg # of iterations =  1.0

     total cpu time spent up to now is    10335.7 secs

     total energy              =   -2510.37769543 Ry
     estimated scf accuracy    <          1.4E-09 Ry

     total magnetization       =    -0.00 Bohr mag/cell
     absolute magnetization    =     0.00 Bohr mag/cell

     iteration # 70     ecut=    90.00 Ry     beta= 0.20
     Davidson diagonalization with overlap
     ethr =  8.51E-13,  avg # of iterations =  1.0

     total cpu time spent up to now is    10373.9 secs

     total energy              =   -2510.37769543 Ry
     estimated scf accuracy    <          1.3E-09 Ry

     total magnetization       =    -0.00 Bohr mag/cell
     absolute magnetization    =     0.00 Bohr mag/cell

     iteration # 71     ecut=    90.00 Ry     beta= 0.20
     Davidson diagonalization with overlap
     ethr =  8.51E-13,  avg # of iterations =  1.0

     total cpu time spent up to now is    10412.2 secs

     total energy              =   -2510.37769543 Ry
     estimated scf accuracy    <          1.5E-09 Ry

     total magnetization       =    -0.00 Bohr mag/cell
     absolute magnetization    =     0.00 Bohr mag/cell

     iteration # 72     ecut=    90.00 Ry     beta= 0.20
     Davidson diagonalization with overlap
     ethr =  8.51E-13,  avg # of iterations =  1.0

     total cpu time spent up to now is    10450.4 secs

     total energy              =   -2510.37769543 Ry
     estimated scf accuracy    <          3.7E-09 Ry

     total magnetization       =    -0.00 Bohr mag/cell
     absolute magnetization    =     0.00 Bohr mag/cell

     iteration # 73     ecut=    90.00 Ry     beta= 0.20
     Davidson diagonalization with overlap
     ethr =  8.51E-13,  avg # of iterations =  1.0

     total cpu time spent up to now is    10488.6 secs

     total energy              =   -2510.37769543 Ry
     estimated scf accuracy    <          2.1E-09 Ry

     total magnetization       =    -0.00 Bohr mag/cell
     absolute magnetization    =     0.00 Bohr mag/cell

     iteration # 74     ecut=    90.00 Ry     beta= 0.20
     Davidson diagonalization with overlap
     ethr =  8.51E-13,  avg # of iterations =  1.0

     total cpu time spent up to now is    10526.9 secs

     total energy              =   -2510.37769543 Ry
     estimated scf accuracy    <          2.7E-09 Ry

     total magnetization       =    -0.00 Bohr mag/cell
     absolute magnetization    =     0.00 Bohr mag/cell

     iteration # 75     ecut=    90.00 Ry     beta= 0.20
     Davidson diagonalization with overlap
     ethr =  8.51E-13,  avg # of iterations =  1.0

     total cpu time spent up to now is    10565.1 secs

     total energy              =   -2510.37769543 Ry
     estimated scf accuracy    <          1.2E-09 Ry

     total magnetization       =    -0.00 Bohr mag/cell
     absolute magnetization    =     0.00 Bohr mag/cell

     iteration # 76     ecut=    90.00 Ry     beta= 0.20
     Davidson diagonalization with overlap
     ethr =  8.51E-13,  avg # of iterations =  1.0

     total cpu time spent up to now is    10603.3 secs

     total energy              =   -2510.37769543 Ry
     estimated scf accuracy    <          1.3E-09 Ry

     total magnetization       =    -0.00 Bohr mag/cell
     absolute magnetization    =     0.00 Bohr mag/cell

     iteration # 77     ecut=    90.00 Ry     beta= 0.20
     Davidson diagonalization with overlap
     ethr =  8.51E-13,  avg # of iterations =  1.0

     total cpu time spent up to now is    10641.5 secs

     total energy              =   -2510.37769543 Ry
     estimated scf accuracy    <          1.1E-09 Ry

     total magnetization       =    -0.00 Bohr mag/cell
     absolute magnetization    =     0.00 Bohr mag/cell

     iteration # 78     ecut=    90.00 Ry     beta= 0.20
     Davidson diagonalization with overlap
     ethr =  8.51E-13,  avg # of iterations =  1.0

     total cpu time spent up to now is    10679.7 secs

     total energy              =   -2510.37769543 Ry
     estimated scf accuracy    <          1.2E-09 Ry

     total magnetization       =    -0.00 Bohr mag/cell
     absolute magnetization    =     0.00 Bohr mag/cell

     iteration # 79     ecut=    90.00 Ry     beta= 0.20
     Davidson diagonalization with overlap
     ethr =  8.51E-13,  avg # of iterations =  1.0

     total cpu time spent up to now is    10717.9 secs

     total energy              =   -2510.37769543 Ry
     estimated scf accuracy    <          1.3E-09 Ry

     total magnetization       =    -0.00 Bohr mag/cell
     absolute magnetization    =     0.00 Bohr mag/cell

     iteration # 80     ecut=    90.00 Ry     beta= 0.20
     Davidson diagonalization with overlap
     ethr =  8.51E-13,  avg # of iterations =  1.0

     total cpu time spent up to now is    10756.1 secs

     total energy              =   -2510.37769543 Ry
     estimated scf accuracy    <          1.2E-09 Ry

     total magnetization       =    -0.00 Bohr mag/cell
     absolute magnetization    =     0.00 Bohr mag/cell

     iteration # 81     ecut=    90.00 Ry     beta= 0.20
     Davidson diagonalization with overlap
     ethr =  8.51E-13,  avg # of iterations =  1.0

     total cpu time spent up to now is    10794.3 secs

     total energy              =   -2510.37769543 Ry
     estimated scf accuracy    <          1.2E-09 Ry

     total magnetization       =    -0.00 Bohr mag/cell
     absolute magnetization    =     0.00 Bohr mag/cell

     iteration # 82     ecut=    90.00 Ry     beta= 0.20
     Davidson diagonalization with overlap
     ethr =  8.51E-13,  avg # of iterations =  1.0

     total cpu time spent up to now is    10832.5 secs

     total energy              =   -2510.37769543 Ry
     estimated scf accuracy    <          1.9E-09 Ry

     total magnetization       =    -0.00 Bohr mag/cell
     absolute magnetization    =     0.00 Bohr mag/cell

     iteration # 83     ecut=    90.00 Ry     beta= 0.20
     Davidson diagonalization with overlap
     ethr =  8.51E-13,  avg # of iterations =  1.0

     total cpu time spent up to now is    10870.8 secs

     total energy              =   -2510.37769543 Ry
     estimated scf accuracy    <          3.8E-09 Ry

     total magnetization       =    -0.00 Bohr mag/cell
     absolute magnetization    =     0.00 Bohr mag/cell

     iteration # 84     ecut=    90.00 Ry     beta= 0.20
     Davidson diagonalization with overlap
     ethr =  8.51E-13,  avg # of iterations =  1.0

     total cpu time spent up to now is    10909.0 secs

     total energy              =   -2510.37769543 Ry
     estimated scf accuracy    <          1.2E-09 Ry

     total magnetization       =    -0.00 Bohr mag/cell
     absolute magnetization    =     0.00 Bohr mag/cell

     iteration # 85     ecut=    90.00 Ry     beta= 0.20
     Davidson diagonalization with overlap
