 # File generated with Atomsk by kevin on 2022-03-20 17:48:00
 
           8  atoms
           2  atom types
 
      0.000000000000       4.553400000000  xlo xhi
      0.000000000000       4.553400000000  ylo yhi
      0.000000000000       4.553400000000  zlo zhi
      0.000000000000       0.000000000000       0.022767000000  xy xz yz
 
Masses
 
            1   58.93319500             # Co
            2   0.00000000              # XX
 
Atoms # atomic
 
         1    1        0.000302022370       0.007773040261       0.006129883073
         2    3        2.281567173817       2.286829344554       2.271542197118
         3    1        0.000302022370       2.295856540261       2.282829883073
         4    3        2.281567173817      -0.001254155446      -0.005157802882
         5    1        2.277002022370       2.284473040261       0.006129883073
         6    3        0.000302022370       0.019156540261       2.282829883073
         7    1        2.277002022370       0.019156540261       2.282829883073
         8    3        0.000302022370       2.284473040261       0.006129883073
