
     Program PWSCF v.6.7MaX starts on 22Mar2022 at 10:47:30 

     This program is part of the open-source Quantum ESPRESSO suite
     for quantum simulation of materials; please cite
         "P. Giannozzi et al., J. Phys.:Condens. Matter 21 395502 (2009);
         "P. Giannozzi et al., J. Phys.:Condens. Matter 29 465901 (2017);
          URL http://www.quantum-espresso.org", 
     in publications or presentations arising from this work. More details at
     http://www.quantum-espresso.org/quote

     Parallel version (MPI), running on    24 processors

     MPI processes distributed on     1 nodes
     R & G space division:  proc/nbgrp/npool/nimage =      24
     Reading input from /home/kevin/QE_CoCrFeMnNi/CoCrFeMnNi/Opt/binary/Opt-B1-CoFe/Mix/elastic/Chg_1-B1-CoFe.in

     Current dimensions of program PWSCF are:
     Max number of different atomic species (ntypx) = 10
     Max number of k-points (npk) =  40000
     Max angular momentum in pseudopotentials (lmaxx) =  3
     file Fe.pbe-spn-kjpaw_psl.0.2.1.UPF: wavefunction(s)  3D renormalized

     Subspace diagonalization in iterative solution of the eigenvalue problem:
     a serial algorithm will be used

     Found symmetry operation: I + (  0.0000 -0.5000  0.5000)
     This is a supercell, fractional translations are disabled

     Parallelization info
     --------------------
     sticks:   dense  smooth     PW     G-vecs:    dense   smooth      PW
     Min         266      88     24                15989     3074     459
     Max         267      89     26                15992     3077     465
     Sum        6389    2127    597               383779    73793   11091



     bravais-lattice index     =            0
     lattice parameter (alat)  =       8.6477  a.u.
     unit-cell volume          =     640.2802 (a.u.)^3
     number of atoms/cell      =            8
     number of atomic types    =            2
     number of electrons       =       132.00
     number of Kohn-Sham states=           79
     kinetic-energy cutoff     =      90.0000  Ry
     charge density cutoff     =    1080.0000  Ry
     scf convergence threshold =      1.0E-08
     mixing beta               =       0.2000
     number of iterations used =            8  plain     mixing
     energy convergence thresh.=      1.0E-05
     force convergence thresh. =      1.0E-04
     Exchange-correlation= SLA  PW   PBE  PBE
                           (   1   4   3   4   0   0   0)
     nstep                     =          100


     celldm(1)=   8.647702  celldm(2)=   0.000000  celldm(3)=   0.000000
     celldm(4)=   0.000000  celldm(5)=   0.000000  celldm(6)=   0.000000

     crystal axes: (cart. coord. in units of alat)
               a(1) = (   1.000000   0.000000   0.000000 )  
               a(2) = (   0.000000   0.995025   0.000000 )  
               a(3) = (   0.000000   0.000000   0.995025 )  

     reciprocal axes: (cart. coord. in units 2 pi/alat)
               b(1) = (  1.000000  0.000000  0.000000 )  
               b(2) = (  0.000000  1.005000  0.000000 )  
               b(3) = (  0.000000  0.000000  1.005000 )  


     PseudoPot. # 1 for Fe read from file:
     /opt/QEpot/SSSP_efficiency_pseudos/Fe.pbe-spn-kjpaw_psl.0.2.1.UPF
     MD5 check sum: e86618425769142926afa95317d90200
     Pseudo is Projector augmented-wave + core cor, Zval = 16.0
     Generated using "atomic" code by A. Dal Corso  v.5.0.99 svn rev. 10869
     Shape of augmentation charge: PSQ
     Using radial grid of 1191 points,  6 beta functions with: 
                l(1) =   0
                l(2) =   0
                l(3) =   1
                l(4) =   1
                l(5) =   2
                l(6) =   2
     Q(r) pseudized with 0 coefficients 


     PseudoPot. # 2 for Co read from file:
     /opt/QEpot/SSSP_efficiency_pseudos/Co_pbe_v1.2.uspp.F.UPF
     MD5 check sum: 5f91765df6ddd3222702df6e7b74a16d
     Pseudo is Ultrasoft + core correction, Zval = 17.0
     Generated by new atomic code, or converted to UPF format
     Using radial grid of  863 points,  6 beta functions with: 
                l(1) =   0
                l(2) =   0
                l(3) =   1
                l(4) =   1
                l(5) =   2
                l(6) =   2
     Q(r) pseudized with  8 coefficients,  rinner =    1.200   1.200   1.200
                                                       1.200   1.200

     atomic species   valence    mass     pseudopotential
        Fe            16.00    55.84500     Fe( 1.00)
        Co            17.00    58.93300     Co( 1.00)

     Starting magnetic structure 
     atomic species   magnetization
        Fe           0.000
        Co           0.000

     No symmetry found



   Cartesian axes

     site n.     atom                  positions (alat units)
         1           Fe  tau(   1) = (  -0.0019076   0.4927105  -0.0031916  )
         2           Co  tau(   2) = (   0.4980978  -0.0036693   0.4942327  )
         3           Fe  tau(   3) = (  -0.0019075  -0.0048008   0.4943206  )
         4           Co  tau(   4) = (   0.4980976   0.4938436  -0.0032798  )
         5           Fe  tau(   5) = (   0.4983207   0.0048749  -0.0038703  )
         6           Co  tau(   6) = (  -0.0018728   0.4938980   0.4942348  )
         7           Fe  tau(   7) = (   0.4983199   0.5023875   0.4936420  )
         8           Co  tau(   8) = (  -0.0018726  -0.0036141  -0.0032777  )

     number of k points=   112  Gaussian smearing, width (Ry)=  0.0100

     Number of k-points >= 100: set verbosity='high' to print them.

     Dense  grid:   383779 G-vectors     FFT dimensions: (  96,  96,  96)

     Smooth grid:    73793 G-vectors     FFT dimensions: (  54,  54,  54)

     Estimated max dynamical RAM per process >     175.54 MB

     Estimated total dynamical RAM >       4.11 GB

     Check: negative core charge=   -0.000012
     Generating pointlists ...
     new r_m :   0.2017 (alat units)  1.7442 (a.u.) for type    1
     new r_m :   0.2017 (alat units)  1.7442 (a.u.) for type    2

     Initial potential from superposition of free atoms

     starting charge  127.99822, renormalised to  132.00000
     Starting wfcs are  104 randomized atomic wfcs
     Checking if some PAW data can be deallocated... 

     total cpu time spent up to now is       23.2 secs

     Self-consistent Calculation

     iteration #  1     ecut=    90.00 Ry     beta= 0.20
     Davidson diagonalization with overlap
     ethr =  1.00E-02,  avg # of iterations =  2.0

     total cpu time spent up to now is       76.0 secs

     total energy              =   -2506.04001800 Ry
     estimated scf accuracy    <      23.26695557 Ry

     total magnetization       =    -0.00 Bohr mag/cell
     absolute magnetization    =     0.01 Bohr mag/cell

     iteration #  2     ecut=    90.00 Ry     beta= 0.20
     Davidson diagonalization with overlap
     ethr =  1.00E-02,  avg # of iterations =  3.3

     total cpu time spent up to now is      131.1 secs

     total energy              =   -2508.26490511 Ry
     estimated scf accuracy    <      40.73219694 Ry

     total magnetization       =     0.00 Bohr mag/cell
     absolute magnetization    =     0.01 Bohr mag/cell

     iteration #  3     ecut=    90.00 Ry     beta= 0.20
     Davidson diagonalization with overlap
     ethr =  1.00E-02,  avg # of iterations =  2.0

     total cpu time spent up to now is      179.8 secs

     total energy              =   -2510.26186801 Ry
     estimated scf accuracy    <       0.32507506 Ry

     total magnetization       =    -0.00 Bohr mag/cell
     absolute magnetization    =     0.02 Bohr mag/cell

     iteration #  4     ecut=    90.00 Ry     beta= 0.20
     Davidson diagonalization with overlap
     ethr =  2.46E-04,  avg # of iterations =  4.3

     total cpu time spent up to now is      249.4 secs

     total energy              =   -2510.37343635 Ry
     estimated scf accuracy    <       0.63146958 Ry

     total magnetization       =    -0.00 Bohr mag/cell
     absolute magnetization    =     0.01 Bohr mag/cell

     iteration #  5     ecut=    90.00 Ry     beta= 0.20
     Davidson diagonalization with overlap
     ethr =  2.46E-04,  avg # of iterations =  1.0

     total cpu time spent up to now is      289.6 secs

     total energy              =   -2510.37585635 Ry
     estimated scf accuracy    <       0.18152767 Ry

     total magnetization       =    -0.00 Bohr mag/cell
     absolute magnetization    =     0.01 Bohr mag/cell

     iteration #  6     ecut=    90.00 Ry     beta= 0.20
     Davidson diagonalization with overlap
     ethr =  1.38E-04,  avg # of iterations =  1.0

     total cpu time spent up to now is      329.5 secs

     total energy              =   -2510.36856800 Ry
     estimated scf accuracy    <       0.06999468 Ry

     total magnetization       =    -0.00 Bohr mag/cell
     absolute magnetization    =     0.01 Bohr mag/cell

     iteration #  7     ecut=    90.00 Ry     beta= 0.20
     Davidson diagonalization with overlap
     ethr =  5.30E-05,  avg # of iterations =  2.0

     total cpu time spent up to now is      376.4 secs

     total energy              =   -2510.37675282 Ry
     estimated scf accuracy    <       0.13596251 Ry

     total magnetization       =    -0.00 Bohr mag/cell
     absolute magnetization    =     0.01 Bohr mag/cell

     iteration #  8     ecut=    90.00 Ry     beta= 0.20
     Davidson diagonalization with overlap
     ethr =  5.30E-05,  avg # of iterations =  1.0

     total cpu time spent up to now is      416.4 secs

     total energy              =   -2510.37220391 Ry
     estimated scf accuracy    <       0.07060537 Ry

     total magnetization       =    -0.00 Bohr mag/cell
     absolute magnetization    =     0.01 Bohr mag/cell

     iteration #  9     ecut=    90.00 Ry     beta= 0.20
     Davidson diagonalization with overlap
     ethr =  5.30E-05,  avg # of iterations =  1.7

     total cpu time spent up to now is      460.3 secs

     total energy              =   -2510.37713029 Ry
     estimated scf accuracy    <       0.10861914 Ry

     total magnetization       =    -0.00 Bohr mag/cell
     absolute magnetization    =     0.02 Bohr mag/cell

     iteration # 10     ecut=    90.00 Ry     beta= 0.20
     Davidson diagonalization with overlap
     ethr =  5.30E-05,  avg # of iterations =  1.0

     total cpu time spent up to now is      500.7 secs

     total energy              =   -2510.37549901 Ry
     estimated scf accuracy    <       0.03832803 Ry

     total magnetization       =    -0.01 Bohr mag/cell
     absolute magnetization    =     0.02 Bohr mag/cell

     iteration # 11     ecut=    90.00 Ry     beta= 0.20
     Davidson diagonalization with overlap
     ethr =  2.90E-05,  avg # of iterations =  1.1

     total cpu time spent up to now is      541.0 secs

     total energy              =   -2510.37746613 Ry
     estimated scf accuracy    <       0.00587371 Ry

     total magnetization       =    -0.01 Bohr mag/cell
     absolute magnetization    =     0.02 Bohr mag/cell

     iteration # 12     ecut=    90.00 Ry     beta= 0.20
     Davidson diagonalization with overlap
     c_bands:  1 eigenvalues not converged
     c_bands:  1 eigenvalues not converged
     ethr =  4.45E-06,  avg # of iterations =  1.4

     total cpu time spent up to now is      582.2 secs

     total energy              =   -2510.37750146 Ry
     estimated scf accuracy    <       0.00782652 Ry

     total magnetization       =    -0.01 Bohr mag/cell
     absolute magnetization    =     0.03 Bohr mag/cell

     iteration # 13     ecut=    90.00 Ry     beta= 0.20
     Davidson diagonalization with overlap
     ethr =  4.45E-06,  avg # of iterations =  1.0

     total cpu time spent up to now is      622.2 secs

     total energy              =   -2510.37765446 Ry
     estimated scf accuracy    <       0.00002792 Ry

     total magnetization       =    -0.01 Bohr mag/cell
     absolute magnetization    =     0.03 Bohr mag/cell

     iteration # 14     ecut=    90.00 Ry     beta= 0.20
     Davidson diagonalization with overlap
     ethr =  2.12E-08,  avg # of iterations =  5.5

     total cpu time spent up to now is      705.9 secs

     total energy              =   -2510.37767199 Ry
     estimated scf accuracy    <       0.00027907 Ry

     total magnetization       =    -0.01 Bohr mag/cell
     absolute magnetization    =     0.04 Bohr mag/cell

     iteration # 15     ecut=    90.00 Ry     beta= 0.20
     Davidson diagonalization with overlap
     ethr =  2.12E-08,  avg # of iterations =  1.0

     total cpu time spent up to now is      746.2 secs

     total energy              =   -2510.37767828 Ry
     estimated scf accuracy    <       0.00001432 Ry

     total magnetization       =    -0.01 Bohr mag/cell
     absolute magnetization    =     0.04 Bohr mag/cell

     iteration # 16     ecut=    90.00 Ry     beta= 0.20
     Davidson diagonalization with overlap
     ethr =  1.08E-08,  avg # of iterations =  1.0

     total cpu time spent up to now is      787.9 secs

     total energy              =   -2510.37767883 Ry
     estimated scf accuracy    <       0.00006815 Ry

     total magnetization       =    -0.01 Bohr mag/cell
     absolute magnetization    =     0.04 Bohr mag/cell

     iteration # 17     ecut=    90.00 Ry     beta= 0.20
     Davidson diagonalization with overlap
     ethr =  1.08E-08,  avg # of iterations =  1.0

     total cpu time spent up to now is      828.1 secs

     total energy              =   -2510.37768018 Ry
     estimated scf accuracy    <       0.00001323 Ry

     total magnetization       =    -0.01 Bohr mag/cell
     absolute magnetization    =     0.06 Bohr mag/cell

     iteration # 18     ecut=    90.00 Ry     beta= 0.20
     Davidson diagonalization with overlap
     ethr =  1.00E-08,  avg # of iterations =  1.0

     total cpu time spent up to now is      868.0 secs

     total energy              =   -2510.37767917 Ry
     estimated scf accuracy    <       0.00005513 Ry

     total magnetization       =    -0.01 Bohr mag/cell
     absolute magnetization    =     0.05 Bohr mag/cell

     iteration # 19     ecut=    90.00 Ry     beta= 0.20
     Davidson diagonalization with overlap
     ethr =  1.00E-08,  avg # of iterations =  1.0

     total cpu time spent up to now is      908.8 secs

     total energy              =   -2510.37767772 Ry
     estimated scf accuracy    <       0.00003317 Ry

     total magnetization       =    -0.01 Bohr mag/cell
     absolute magnetization    =     0.05 Bohr mag/cell

     iteration # 20     ecut=    90.00 Ry     beta= 0.20
     Davidson diagonalization with overlap
     ethr =  1.00E-08,  avg # of iterations =  2.0

     total cpu time spent up to now is      954.7 secs

     total energy              =   -2510.37767543 Ry
     estimated scf accuracy    <       0.00003793 Ry

     total magnetization       =    -0.01 Bohr mag/cell
     absolute magnetization    =     0.04 Bohr mag/cell

     iteration # 21     ecut=    90.00 Ry     beta= 0.20
     Davidson diagonalization with overlap
     ethr =  1.00E-08,  avg # of iterations =  2.0

     total cpu time spent up to now is     1004.9 secs

     total energy              =   -2510.37767365 Ry
     estimated scf accuracy    <       0.00011502 Ry

     total magnetization       =    -0.01 Bohr mag/cell
     absolute magnetization    =     0.04 Bohr mag/cell

     iteration # 22     ecut=    90.00 Ry     beta= 0.20
     Davidson diagonalization with overlap
     ethr =  1.00E-08,  avg # of iterations =  1.0

     total cpu time spent up to now is     1044.9 secs

     total energy              =   -2510.37767482 Ry
     estimated scf accuracy    <       0.00005826 Ry

     total magnetization       =    -0.01 Bohr mag/cell
     absolute magnetization    =     0.02 Bohr mag/cell

     iteration # 23     ecut=    90.00 Ry     beta= 0.20
     Davidson diagonalization with overlap
     ethr =  1.00E-08,  avg # of iterations =  1.0

     total cpu time spent up to now is     1085.0 secs

     total energy              =   -2510.37767433 Ry
     estimated scf accuracy    <       0.00000694 Ry

     total magnetization       =    -0.01 Bohr mag/cell
     absolute magnetization    =     0.02 Bohr mag/cell

     iteration # 24     ecut=    90.00 Ry     beta= 0.20
     Davidson diagonalization with overlap
     ethr =  5.26E-09,  avg # of iterations =  1.0

     total cpu time spent up to now is     1125.0 secs

     total energy              =   -2510.37767437 Ry
     estimated scf accuracy    <       0.00002095 Ry

     total magnetization       =    -0.01 Bohr mag/cell
     absolute magnetization    =     0.01 Bohr mag/cell

     iteration # 25     ecut=    90.00 Ry     beta= 0.20
     Davidson diagonalization with overlap
     ethr =  5.26E-09,  avg # of iterations =  1.0

     total cpu time spent up to now is     1164.3 secs

     total energy              =   -2510.37767467 Ry
     estimated scf accuracy    <       0.00000662 Ry

     total magnetization       =    -0.01 Bohr mag/cell
     absolute magnetization    =     0.01 Bohr mag/cell

     iteration # 26     ecut=    90.00 Ry     beta= 0.20
     Davidson diagonalization with overlap
     ethr =  5.02E-09,  avg # of iterations =  1.0

     total cpu time spent up to now is     1203.7 secs

     total energy              =   -2510.37767401 Ry
     estimated scf accuracy    <       0.00004416 Ry

     total magnetization       =    -0.01 Bohr mag/cell
     absolute magnetization    =     0.01 Bohr mag/cell

     iteration # 27     ecut=    90.00 Ry     beta= 0.20
     Davidson diagonalization with overlap
     ethr =  5.02E-09,  avg # of iterations =  1.0

     total cpu time spent up to now is     1243.1 secs

     total energy              =   -2510.37767492 Ry
     estimated scf accuracy    <       0.00000292 Ry

     total magnetization       =    -0.01 Bohr mag/cell
     absolute magnetization    =     0.01 Bohr mag/cell

     iteration # 28     ecut=    90.00 Ry     beta= 0.20
     Davidson diagonalization with overlap
     ethr =  2.21E-09,  avg # of iterations =  1.0

     total cpu time spent up to now is     1282.5 secs

     total energy              =   -2510.37767489 Ry
     estimated scf accuracy    <       0.00000662 Ry

     total magnetization       =    -0.01 Bohr mag/cell
     absolute magnetization    =     0.01 Bohr mag/cell

     iteration # 29     ecut=    90.00 Ry     beta= 0.20
     Davidson diagonalization with overlap
     ethr =  2.21E-09,  avg # of iterations =  1.0

     total cpu time spent up to now is     1321.9 secs

     total energy              =   -2510.37767497 Ry
     estimated scf accuracy    <       0.00000421 Ry

     total magnetization       =    -0.01 Bohr mag/cell
     absolute magnetization    =     0.01 Bohr mag/cell

     iteration # 30     ecut=    90.00 Ry     beta= 0.20
     Davidson diagonalization with overlap
     ethr =  2.21E-09,  avg # of iterations =  1.0

     total cpu time spent up to now is     1361.1 secs

     total energy              =   -2510.37767496 Ry
     estimated scf accuracy    <       0.00000418 Ry

     total magnetization       =    -0.01 Bohr mag/cell
     absolute magnetization    =     0.01 Bohr mag/cell

     iteration # 31     ecut=    90.00 Ry     beta= 0.20
     Davidson diagonalization with overlap
     ethr =  2.21E-09,  avg # of iterations =  1.0

     total cpu time spent up to now is     1402.7 secs

     total energy              =   -2510.37767503 Ry
     estimated scf accuracy    <       0.00000577 Ry

     total magnetization       =    -0.01 Bohr mag/cell
     absolute magnetization    =     0.01 Bohr mag/cell

     iteration # 32     ecut=    90.00 Ry     beta= 0.20
     Davidson diagonalization with overlap
     ethr =  2.21E-09,  avg # of iterations =  1.1

     total cpu time spent up to now is     1442.1 secs

     total energy              =   -2510.37767510 Ry
     estimated scf accuracy    <       0.00000137 Ry

     total magnetization       =    -0.01 Bohr mag/cell
     absolute magnetization    =     0.01 Bohr mag/cell

     iteration # 33     ecut=    90.00 Ry     beta= 0.20
     Davidson diagonalization with overlap
     ethr =  1.04E-09,  avg # of iterations =  1.0

     total cpu time spent up to now is     1481.5 secs

     total energy              =   -2510.37767518 Ry
     estimated scf accuracy    <       0.00000050 Ry

     total magnetization       =    -0.01 Bohr mag/cell
     absolute magnetization    =     0.01 Bohr mag/cell

     iteration # 34     ecut=    90.00 Ry     beta= 0.20
     Davidson diagonalization with overlap
     ethr =  3.82E-10,  avg # of iterations =  1.0

     total cpu time spent up to now is     1520.7 secs

     total energy              =   -2510.37767519 Ry
     estimated scf accuracy    <       0.00000061 Ry

     total magnetization       =    -0.01 Bohr mag/cell
     absolute magnetization    =     0.01 Bohr mag/cell

     iteration # 35     ecut=    90.00 Ry     beta= 0.20
     Davidson diagonalization with overlap
     ethr =  3.82E-10,  avg # of iterations =  1.0

     total cpu time spent up to now is     1560.0 secs

     total energy              =   -2510.37767513 Ry
     estimated scf accuracy    <       0.00000052 Ry

     total magnetization       =    -0.01 Bohr mag/cell
     absolute magnetization    =     0.01 Bohr mag/cell

     iteration # 36     ecut=    90.00 Ry     beta= 0.20
     Davidson diagonalization with overlap
     ethr =  3.82E-10,  avg # of iterations =  1.0

     total cpu time spent up to now is     1599.2 secs

     total energy              =   -2510.37767508 Ry
     estimated scf accuracy    <       0.00000152 Ry

     total magnetization       =    -0.01 Bohr mag/cell
     absolute magnetization    =     0.01 Bohr mag/cell

     iteration # 37     ecut=    90.00 Ry     beta= 0.20
     Davidson diagonalization with overlap
     ethr =  3.82E-10,  avg # of iterations =  1.0

     total cpu time spent up to now is     1638.6 secs

     total energy              =   -2510.37767511 Ry
     estimated scf accuracy    <       0.00000050 Ry

     total magnetization       =    -0.01 Bohr mag/cell
     absolute magnetization    =     0.01 Bohr mag/cell

     iteration # 38     ecut=    90.00 Ry     beta= 0.20
     Davidson diagonalization with overlap
     ethr =  3.81E-10,  avg # of iterations =  1.1

     total cpu time spent up to now is     1678.3 secs

     total energy              =   -2510.37767508 Ry
     estimated scf accuracy    <       0.00000131 Ry

     total magnetization       =    -0.01 Bohr mag/cell
     absolute magnetization    =     0.01 Bohr mag/cell

     iteration # 39     ecut=    90.00 Ry     beta= 0.20
     Davidson diagonalization with overlap
     ethr =  3.81E-10,  avg # of iterations =  1.0

     total cpu time spent up to now is     1717.5 secs

     total energy              =   -2510.37767506 Ry
     estimated scf accuracy    <       0.00000220 Ry

     total magnetization       =    -0.01 Bohr mag/cell
     absolute magnetization    =     0.01 Bohr mag/cell

     iteration # 40     ecut=    90.00 Ry     beta= 0.20
     Davidson diagonalization with overlap
     ethr =  3.81E-10,  avg # of iterations =  1.0

     total cpu time spent up to now is     1756.9 secs

     total energy              =   -2510.37767509 Ry
     estimated scf accuracy    <       0.00000056 Ry

     total magnetization       =    -0.01 Bohr mag/cell
     absolute magnetization    =     0.01 Bohr mag/cell

     iteration # 41     ecut=    90.00 Ry     beta= 0.20
     Davidson diagonalization with overlap
     ethr =  3.81E-10,  avg # of iterations =  1.0

     total cpu time spent up to now is     1796.1 secs

     total energy              =   -2510.37767508 Ry
     estimated scf accuracy    <       0.00000265 Ry

     total magnetization       =    -0.01 Bohr mag/cell
     absolute magnetization    =     0.01 Bohr mag/cell

     iteration # 42     ecut=    90.00 Ry     beta= 0.20
     Davidson diagonalization with overlap
     ethr =  3.81E-10,  avg # of iterations =  1.0

     total cpu time spent up to now is     1835.8 secs

     total energy              =   -2510.37767511 Ry
     estimated scf accuracy    <       0.00000049 Ry

     total magnetization       =    -0.01 Bohr mag/cell
     absolute magnetization    =     0.01 Bohr mag/cell

     iteration # 43     ecut=    90.00 Ry     beta= 0.20
     Davidson diagonalization with overlap
     ethr =  3.71E-10,  avg # of iterations =  1.0

     total cpu time spent up to now is     1875.8 secs

     total energy              =   -2510.37767514 Ry
     estimated scf accuracy    <       0.00000038 Ry

     total magnetization       =    -0.01 Bohr mag/cell
     absolute magnetization    =     0.01 Bohr mag/cell

     iteration # 44     ecut=    90.00 Ry     beta= 0.20
     Davidson diagonalization with overlap
     ethr =  2.84E-10,  avg # of iterations =  1.0

     total cpu time spent up to now is     1915.8 secs

     total energy              =   -2510.37767507 Ry
     estimated scf accuracy    <       0.00000032 Ry

     total magnetization       =    -0.01 Bohr mag/cell
     absolute magnetization    =     0.01 Bohr mag/cell

     iteration # 45     ecut=    90.00 Ry     beta= 0.20
     Davidson diagonalization with overlap
     ethr =  2.42E-10,  avg # of iterations =  1.0

     total cpu time spent up to now is     1955.6 secs

     total energy              =   -2510.37767498 Ry
     estimated scf accuracy    <       0.00000023 Ry

     total magnetization       =    -0.01 Bohr mag/cell
     absolute magnetization    =     0.01 Bohr mag/cell

     iteration # 46     ecut=    90.00 Ry     beta= 0.20
     Davidson diagonalization with overlap
     ethr =  1.76E-10,  avg # of iterations =  1.5

     total cpu time spent up to now is     1999.7 secs

     total energy              =   -2510.37767497 Ry
     estimated scf accuracy    <       0.00000366 Ry

     total magnetization       =    -0.00 Bohr mag/cell
     absolute magnetization    =     0.01 Bohr mag/cell

     iteration # 47     ecut=    90.00 Ry     beta= 0.20
     Davidson diagonalization with overlap
     ethr =  1.76E-10,  avg # of iterations =  1.1

     total cpu time spent up to now is     2039.6 secs

     total energy              =   -2510.37767506 Ry
     estimated scf accuracy    <       0.00000027 Ry

     total magnetization       =    -0.01 Bohr mag/cell
     absolute magnetization    =     0.01 Bohr mag/cell

     iteration # 48     ecut=    90.00 Ry     beta= 0.20
     Davidson diagonalization with overlap
     ethr =  1.76E-10,  avg # of iterations =  1.0

     total cpu time spent up to now is     2078.9 secs

     total energy              =   -2510.37767505 Ry
     estimated scf accuracy    <       0.00000081 Ry

     total magnetization       =    -0.01 Bohr mag/cell
     absolute magnetization    =     0.01 Bohr mag/cell

     iteration # 49     ecut=    90.00 Ry     beta= 0.20
     Davidson diagonalization with overlap
     ethr =  1.76E-10,  avg # of iterations =  1.0

     total cpu time spent up to now is     2118.2 secs

     total energy              =   -2510.37767506 Ry
     estimated scf accuracy    <       0.00000109 Ry

     total magnetization       =    -0.01 Bohr mag/cell
     absolute magnetization    =     0.01 Bohr mag/cell

     iteration # 50     ecut=    90.00 Ry     beta= 0.20
     Davidson diagonalization with overlap
     ethr =  1.76E-10,  avg # of iterations =  1.0

     total cpu time spent up to now is     2157.4 secs

     total energy              =   -2510.37767509 Ry
     estimated scf accuracy    <       0.00000023 Ry

     total magnetization       =    -0.01 Bohr mag/cell
     absolute magnetization    =     0.01 Bohr mag/cell

     iteration # 51     ecut=    90.00 Ry     beta= 0.20
     Davidson diagonalization with overlap
     ethr =  1.76E-10,  avg # of iterations =  1.0

     total cpu time spent up to now is     2196.6 secs

     total energy              =   -2510.37767509 Ry
     estimated scf accuracy    <       0.00000020 Ry

     total magnetization       =    -0.01 Bohr mag/cell
     absolute magnetization    =     0.01 Bohr mag/cell

     iteration # 52     ecut=    90.00 Ry     beta= 0.20
     Davidson diagonalization with overlap
     ethr =  1.50E-10,  avg # of iterations =  1.0

     total cpu time spent up to now is     2235.7 secs

     total energy              =   -2510.37767509 Ry
     estimated scf accuracy    <       0.00000022 Ry

     total magnetization       =    -0.01 Bohr mag/cell
     absolute magnetization    =     0.01 Bohr mag/cell

     iteration # 53     ecut=    90.00 Ry     beta= 0.20
     Davidson diagonalization with overlap
     ethr =  1.50E-10,  avg # of iterations =  1.0

     total cpu time spent up to now is     2274.8 secs

     total energy              =   -2510.37767509 Ry
     estimated scf accuracy    <       0.00000020 Ry

     total magnetization       =    -0.01 Bohr mag/cell
     absolute magnetization    =     0.01 Bohr mag/cell

     iteration # 54     ecut=    90.00 Ry     beta= 0.20
     Davidson diagonalization with overlap
     ethr =  1.50E-10,  avg # of iterations =  1.0

     total cpu time spent up to now is     2314.0 secs

     total energy              =   -2510.37767508 Ry
     estimated scf accuracy    <       0.00000020 Ry

     total magnetization       =    -0.01 Bohr mag/cell
     absolute magnetization    =     0.01 Bohr mag/cell

     iteration # 55     ecut=    90.00 Ry     beta= 0.20
     Davidson diagonalization with overlap
     ethr =  1.50E-10,  avg # of iterations =  1.0

     total cpu time spent up to now is     2353.1 secs

     total energy              =   -2510.37767510 Ry
     estimated scf accuracy    <       0.00000018 Ry

     total magnetization       =    -0.01 Bohr mag/cell
     absolute magnetization    =     0.01 Bohr mag/cell

     iteration # 56     ecut=    90.00 Ry     beta= 0.20
     Davidson diagonalization with overlap
     ethr =  1.33E-10,  avg # of iterations =  1.0

     total cpu time spent up to now is     2392.3 secs

     total energy              =   -2510.37767509 Ry
     estimated scf accuracy    <       0.00000175 Ry

     total magnetization       =    -0.01 Bohr mag/cell
     absolute magnetization    =     0.01 Bohr mag/cell

     iteration # 57     ecut=    90.00 Ry     beta= 0.20
     Davidson diagonalization with overlap
     ethr =  1.33E-10,  avg # of iterations =  1.0

     total cpu time spent up to now is     2431.3 secs

     total energy              =   -2510.37767510 Ry
     estimated scf accuracy    <       0.00000023 Ry

     total magnetization       =    -0.01 Bohr mag/cell
     absolute magnetization    =     0.01 Bohr mag/cell

     iteration # 58     ecut=    90.00 Ry     beta= 0.20
     Davidson diagonalization with overlap
     ethr =  1.33E-10,  avg # of iterations =  1.0

     total cpu time spent up to now is     2470.4 secs

     total energy              =   -2510.37767507 Ry
     estimated scf accuracy    <       0.00000041 Ry

     total magnetization       =    -0.01 Bohr mag/cell
     absolute magnetization    =     0.01 Bohr mag/cell

     iteration # 59     ecut=    90.00 Ry     beta= 0.20
     Davidson diagonalization with overlap
     ethr =  1.33E-10,  avg # of iterations =  1.0

     total cpu time spent up to now is     2509.5 secs

     total energy              =   -2510.37767504 Ry
     estimated scf accuracy    <       0.00000035 Ry

     total magnetization       =    -0.01 Bohr mag/cell
     absolute magnetization    =     0.01 Bohr mag/cell

     iteration # 60     ecut=    90.00 Ry     beta= 0.20
     Davidson diagonalization with overlap
     ethr =  1.33E-10,  avg # of iterations =  1.0

     total cpu time spent up to now is     2548.5 secs

     total energy              =   -2510.37767504 Ry
     estimated scf accuracy    <       0.00000075 Ry

     total magnetization       =    -0.01 Bohr mag/cell
     absolute magnetization    =     0.01 Bohr mag/cell

     iteration # 61     ecut=    90.00 Ry     beta= 0.20
     Davidson diagonalization with overlap
     ethr =  1.33E-10,  avg # of iterations =  1.0

     total cpu time spent up to now is     2589.5 secs

     total energy              =   -2510.37767505 Ry
     estimated scf accuracy    <       0.00000025 Ry

     total magnetization       =    -0.01 Bohr mag/cell
     absolute magnetization    =     0.01 Bohr mag/cell

     iteration # 62     ecut=    90.00 Ry     beta= 0.20
     Davidson diagonalization with overlap
     ethr =  1.33E-10,  avg # of iterations =  1.0

     total cpu time spent up to now is     2628.5 secs

     total energy              =   -2510.37767506 Ry
     estimated scf accuracy    <       0.00000013 Ry

     total magnetization       =    -0.01 Bohr mag/cell
     absolute magnetization    =     0.01 Bohr mag/cell

     iteration # 63     ecut=    90.00 Ry     beta= 0.20
     Davidson diagonalization with overlap
     ethr =  1.01E-10,  avg # of iterations =  1.0

     total cpu time spent up to now is     2667.5 secs

     total energy              =   -2510.37767507 Ry
     estimated scf accuracy    <       0.00000015 Ry

     total magnetization       =    -0.01 Bohr mag/cell
     absolute magnetization    =     0.01 Bohr mag/cell

     iteration # 64     ecut=    90.00 Ry     beta= 0.20
     Davidson diagonalization with overlap
     ethr =  1.01E-10,  avg # of iterations =  1.0

     total cpu time spent up to now is     2706.7 secs

     total energy              =   -2510.37767507 Ry
     estimated scf accuracy    <       0.00000032 Ry

     total magnetization       =    -0.01 Bohr mag/cell
     absolute magnetization    =     0.01 Bohr mag/cell

     iteration # 65     ecut=    90.00 Ry     beta= 0.20
     Davidson diagonalization with overlap
     ethr =  1.01E-10,  avg # of iterations =  1.0

     total cpu time spent up to now is     2745.7 secs

     total energy              =   -2510.37767506 Ry
     estimated scf accuracy    <       0.00000011 Ry

     total magnetization       =    -0.01 Bohr mag/cell
     absolute magnetization    =     0.01 Bohr mag/cell

     iteration # 66     ecut=    90.00 Ry     beta= 0.20
     Davidson diagonalization with overlap
     ethr =  8.46E-11,  avg # of iterations =  1.0

     total cpu time spent up to now is     2784.7 secs

     total energy              =   -2510.37767506 Ry
     estimated scf accuracy    <       0.00000019 Ry

     total magnetization       =    -0.01 Bohr mag/cell
     absolute magnetization    =     0.01 Bohr mag/cell

     iteration # 67     ecut=    90.00 Ry     beta= 0.20
     Davidson diagonalization with overlap
     ethr =  8.46E-11,  avg # of iterations =  1.0

     total cpu time spent up to now is     2823.8 secs

     total energy              =   -2510.37767506 Ry
     estimated scf accuracy    <       0.00000012 Ry

     total magnetization       =    -0.01 Bohr mag/cell
     absolute magnetization    =     0.01 Bohr mag/cell

     iteration # 68     ecut=    90.00 Ry     beta= 0.20
     Davidson diagonalization with overlap
     ethr =  8.46E-11,  avg # of iterations =  1.0

     total cpu time spent up to now is     2862.8 secs

     total energy              =   -2510.37767506 Ry
     estimated scf accuracy    <       0.00000034 Ry

     total magnetization       =    -0.01 Bohr mag/cell
     absolute magnetization    =     0.01 Bohr mag/cell

     iteration # 69     ecut=    90.00 Ry     beta= 0.20
     Davidson diagonalization with overlap
     ethr =  8.46E-11,  avg # of iterations =  1.0

     total cpu time spent up to now is     2902.0 secs

     total energy              =   -2510.37767507 Ry
     estimated scf accuracy    <       0.00000015 Ry

     total magnetization       =    -0.01 Bohr mag/cell
     absolute magnetization    =     0.01 Bohr mag/cell

     iteration # 70     ecut=    90.00 Ry     beta= 0.20
     Davidson diagonalization with overlap
     ethr =  8.46E-11,  avg # of iterations =  1.0

     total cpu time spent up to now is     2940.9 secs

     total energy              =   -2510.37767507 Ry
     estimated scf accuracy    <       0.00000015 Ry

     total magnetization       =    -0.01 Bohr mag/cell
     absolute magnetization    =     0.01 Bohr mag/cell

     iteration # 71     ecut=    90.00 Ry     beta= 0.20
     Davidson diagonalization with overlap
     ethr =  8.46E-11,  avg # of iterations =  1.0

     total cpu time spent up to now is     2979.8 secs

     total energy              =   -2510.37767507 Ry
     estimated scf accuracy    <       0.00000011 Ry

     total magnetization       =    -0.01 Bohr mag/cell
     absolute magnetization    =     0.01 Bohr mag/cell

     iteration # 72     ecut=    90.00 Ry     beta= 0.20
     Davidson diagonalization with overlap
     ethr =  8.46E-11,  avg # of iterations =  1.0

     total cpu time spent up to now is     3018.7 secs

     total energy              =   -2510.37767508 Ry
     estimated scf accuracy    <       0.00000012 Ry

     total magnetization       =    -0.01 Bohr mag/cell
     absolute magnetization    =     0.01 Bohr mag/cell

     iteration # 73     ecut=    90.00 Ry     beta= 0.20
     Davidson diagonalization with overlap
     ethr =  8.46E-11,  avg # of iterations =  1.0

     total cpu time spent up to now is     3057.6 secs

     total energy              =   -2510.37767508 Ry
     estimated scf accuracy    <       0.00000016 Ry

     total magnetization       =    -0.01 Bohr mag/cell
     absolute magnetization    =     0.01 Bohr mag/cell

     iteration # 74     ecut=    90.00 Ry     beta= 0.20
     Davidson diagonalization with overlap
     ethr =  8.46E-11,  avg # of iterations =  1.0

     total cpu time spent up to now is     3096.5 secs

     total energy              =   -2510.37767508 Ry
     estimated scf accuracy    <       0.00000014 Ry

     total magnetization       =    -0.01 Bohr mag/cell
     absolute magnetization    =     0.01 Bohr mag/cell

     iteration # 75     ecut=    90.00 Ry     beta= 0.20
     Davidson diagonalization with overlap
     ethr =  8.46E-11,  avg # of iterations =  1.0

     total cpu time spent up to now is     3135.4 secs

     total energy              =   -2510.37767508 Ry
     estimated scf accuracy    <       0.00000014 Ry

     total magnetization       =    -0.01 Bohr mag/cell
     absolute magnetization    =     0.01 Bohr mag/cell

     iteration # 76     ecut=    90.00 Ry     beta= 0.20
     Davidson diagonalization with overlap
     ethr =  8.46E-11,  avg # of iterations =  1.0

     total cpu time spent up to now is     3176.1 secs

     total energy              =   -2510.37767507 Ry
     estimated scf accuracy    <       0.00000045 Ry

     total magnetization       =    -0.01 Bohr mag/cell
     absolute magnetization    =     0.01 Bohr mag/cell

     iteration # 77     ecut=    90.00 Ry     beta= 0.20
     Davidson diagonalization with overlap
     ethr =  8.46E-11,  avg # of iterations =  1.0

     total cpu time spent up to now is     3215.0 secs

     total energy              =   -2510.37767507 Ry
     estimated scf accuracy    <       0.00000014 Ry

     total magnetization       =    -0.01 Bohr mag/cell
     absolute magnetization    =     0.01 Bohr mag/cell

     iteration # 78     ecut=    90.00 Ry     beta= 0.20
     Davidson diagonalization with overlap
     ethr =  8.46E-11,  avg # of iterations =  1.0

     total cpu time spent up to now is     3253.9 secs

     total energy              =   -2510.37767508 Ry
     estimated scf accuracy    <       0.00000023 Ry

     total magnetization       =    -0.01 Bohr mag/cell
     absolute magnetization    =     0.01 Bohr mag/cell

     iteration # 79     ecut=    90.00 Ry     beta= 0.20
     Davidson diagonalization with overlap
     ethr =  8.46E-11,  avg # of iterations =  1.0

     total cpu time spent up to now is     3292.8 secs

     total energy              =   -2510.37767507 Ry
     estimated scf accuracy    <       0.00000024 Ry

     total magnetization       =    -0.01 Bohr mag/cell
     absolute magnetization    =     0.01 Bohr mag/cell

     iteration # 80     ecut=    90.00 Ry     beta= 0.20
     Davidson diagonalization with overlap
     ethr =  8.46E-11,  avg # of iterations =  1.0

     total cpu time spent up to now is     3331.7 secs

     total energy              =   -2510.37767506 Ry
     estimated scf accuracy    <       0.00000013 Ry

     total magnetization       =    -0.01 Bohr mag/cell
     absolute magnetization    =     0.01 Bohr mag/cell

     iteration # 81     ecut=    90.00 Ry     beta= 0.20
     Davidson diagonalization with overlap
     ethr =  8.46E-11,  avg # of iterations =  1.0

     total cpu time spent up to now is     3370.9 secs

     total energy              =   -2510.37767507 Ry
     estimated scf accuracy    <       0.00000024 Ry

     total magnetization       =    -0.01 Bohr mag/cell
     absolute magnetization    =     0.01 Bohr mag/cell

     iteration # 82     ecut=    90.00 Ry     beta= 0.20
     Davidson diagonalization with overlap
     ethr =  8.46E-11,  avg # of iterations =  1.0

     total cpu time spent up to now is     3410.4 secs

     total energy              =   -2510.37767507 Ry
     estimated scf accuracy    <       0.00000072 Ry

     total magnetization       =    -0.01 Bohr mag/cell
     absolute magnetization    =     0.01 Bohr mag/cell

     iteration # 83     ecut=    90.00 Ry     beta= 0.20
     Davidson diagonalization with overlap
     ethr =  8.46E-11,  avg # of iterations =  1.0

     total cpu time spent up to now is     3449.6 secs

     total energy              =   -2510.37767509 Ry
     estimated scf accuracy    <       0.00000019 Ry

     total magnetization       =    -0.01 Bohr mag/cell
     absolute magnetization    =     0.01 Bohr mag/cell

     iteration # 84     ecut=    90.00 Ry     beta= 0.20
     Davidson diagonalization with overlap
     ethr =  8.46E-11,  avg # of iterations =  1.0

     total cpu time spent up to now is     3488.5 secs

     total energy              =   -2510.37767509 Ry
     estimated scf accuracy    <       0.00000019 Ry

     total magnetization       =    -0.01 Bohr mag/cell
     absolute magnetization    =     0.01 Bohr mag/cell

     iteration # 85     ecut=    90.00 Ry     beta= 0.20
     Davidson diagonalization with overlap
     ethr =  8.46E-11,  avg # of iterations =  1.0

     total cpu time spent up to now is     3527.4 secs

     total energy              =   -2510.37767508 Ry
     estimated scf accuracy    <       0.00000022 Ry

     total magnetization       =    -0.01 Bohr mag/cell
     absolute magnetization    =     0.01 Bohr mag/cell

     iteration # 86     ecut=    90.00 Ry     beta= 0.20
     Davidson diagonalization with overlap
     ethr =  8.46E-11,  avg # of iterations =  1.0

     total cpu time spent up to now is     3566.4 secs

     total energy              =   -2510.37767508 Ry
     estimated scf accuracy    <       0.00000018 Ry

     total magnetization       =    -0.01 Bohr mag/cell
     absolute magnetization    =     0.01 Bohr mag/cell

     iteration # 87     ecut=    90.00 Ry     beta= 0.20
     Davidson diagonalization with overlap
     ethr =  8.46E-11,  avg # of iterations =  1.0

     total cpu time spent up to now is     3605.4 secs

     total energy              =   -2510.37767508 Ry
     estimated scf accuracy    <       0.00000017 Ry

     total magnetization       =    -0.01 Bohr mag/cell
     absolute magnetization    =     0.01 Bohr mag/cell

     iteration # 88     ecut=    90.00 Ry     beta= 0.20
     Davidson diagonalization with overlap
     ethr =  8.46E-11,  avg # of iterations =  1.0

     total cpu time spent up to now is     3645.1 secs

     total energy              =   -2510.37767509 Ry
     estimated scf accuracy    <       0.00000018 Ry

     total magnetization       =    -0.01 Bohr mag/cell
     absolute magnetization    =     0.01 Bohr mag/cell

     iteration # 89     ecut=    90.00 Ry     beta= 0.20
     Davidson diagonalization with overlap
     ethr =  8.46E-11,  avg # of iterations =  1.0

     total cpu time spent up to now is     3684.6 secs

     total energy              =   -2510.37767511 Ry
     estimated scf accuracy    <       0.00000026 Ry

     total magnetization       =    -0.01 Bohr mag/cell
     absolute magnetization    =     0.01 Bohr mag/cell

     iteration # 90     ecut=    90.00 Ry     beta= 0.20
     Davidson diagonalization with overlap
     ethr =  8.46E-11,  avg # of iterations =  1.1

     total cpu time spent up to now is     3724.3 secs

     total energy              =   -2510.37767512 Ry
     estimated scf accuracy    <       0.00000044 Ry

     total magnetization       =    -0.01 Bohr mag/cell
     absolute magnetization    =     0.01 Bohr mag/cell

     iteration # 91     ecut=    90.00 Ry     beta= 0.20
     Davidson diagonalization with overlap
     ethr =  8.46E-11,  avg # of iterations =  1.0

     total cpu time spent up to now is     3764.0 secs

     total energy              =   -2510.37767512 Ry
     estimated scf accuracy    <       0.00000028 Ry

     total magnetization       =    -0.01 Bohr mag/cell
     absolute magnetization    =     0.01 Bohr mag/cell

     iteration # 92     ecut=    90.00 Ry     beta= 0.20
     Davidson diagonalization with overlap
     ethr =  8.46E-11,  avg # of iterations =  1.0

     total cpu time spent up to now is     3805.7 secs

     total energy              =   -2510.37767511 Ry
     estimated scf accuracy    <       0.00000060 Ry

     total magnetization       =    -0.01 Bohr mag/cell
     absolute magnetization    =     0.01 Bohr mag/cell

     iteration # 93     ecut=    90.00 Ry     beta= 0.20
     Davidson diagonalization with overlap
     ethr =  8.46E-11,  avg # of iterations =  1.0

     total cpu time spent up to now is     3845.3 secs

     total energy              =   -2510.37767513 Ry
     estimated scf accuracy    <       0.00000028 Ry

     total magnetization       =    -0.01 Bohr mag/cell
     absolute magnetization    =     0.01 Bohr mag/cell

     iteration # 94     ecut=    90.00 Ry     beta= 0.20
     Davidson diagonalization with overlap
     ethr =  8.46E-11,  avg # of iterations =  1.0

     total cpu time spent up to now is     3884.9 secs

     total energy              =   -2510.37767513 Ry
     estimated scf accuracy    <       0.00000035 Ry

     total magnetization       =    -0.01 Bohr mag/cell
     absolute magnetization    =     0.01 Bohr mag/cell

     iteration # 95     ecut=    90.00 Ry     beta= 0.20
     Davidson diagonalization with overlap
     ethr =  8.46E-11,  avg # of iterations =  1.0

     total cpu time spent up to now is     3924.6 secs

     total energy              =   -2510.37767512 Ry
     estimated scf accuracy    <       0.00000036 Ry

     total magnetization       =    -0.01 Bohr mag/cell
     absolute magnetization    =     0.01 Bohr mag/cell

     iteration # 96     ecut=    90.00 Ry     beta= 0.20
     Davidson diagonalization with overlap
     ethr =  8.46E-11,  avg # of iterations =  1.0

     total cpu time spent up to now is     3964.4 secs

     total energy              =   -2510.37767511 Ry
     estimated scf accuracy    <       0.00000044 Ry

     total magnetization       =    -0.01 Bohr mag/cell
     absolute magnetization    =     0.01 Bohr mag/cell

     iteration # 97     ecut=    90.00 Ry     beta= 0.20
     Davidson diagonalization with overlap
     ethr =  8.46E-11,  avg # of iterations =  1.0

     total cpu time spent up to now is     4004.2 secs

     total energy              =   -2510.37767512 Ry
     estimated scf accuracy    <       0.00000052 Ry

     total magnetization       =    -0.01 Bohr mag/cell
     absolute magnetization    =     0.01 Bohr mag/cell

     iteration # 98     ecut=    90.00 Ry     beta= 0.20
     Davidson diagonalization with overlap
     ethr =  8.46E-11,  avg # of iterations =  1.0

     total cpu time spent up to now is     4043.8 secs

     total energy              =   -2510.37767514 Ry
     estimated scf accuracy    <       0.00000040 Ry

     total magnetization       =    -0.01 Bohr mag/cell
     absolute magnetization    =     0.01 Bohr mag/cell

     iteration # 99     ecut=    90.00 Ry     beta= 0.20
     Davidson diagonalization with overlap
     ethr =  8.46E-11,  avg # of iterations =  1.0

     total cpu time spent up to now is     4083.1 secs

     total energy              =   -2510.37767512 Ry
     estimated scf accuracy    <       0.00000031 Ry

     total magnetization       =    -0.01 Bohr mag/cell
     absolute magnetization    =     0.01 Bohr mag/cell

     iteration #100     ecut=    90.00 Ry     beta= 0.20
     Davidson diagonalization with overlap
     ethr =  8.46E-11,  avg # of iterations =  1.0

     total cpu time spent up to now is     4122.3 secs

     total energy              =   -2510.37767513 Ry
     estimated scf accuracy    <       0.00000056 Ry

     total magnetization       =    -0.01 Bohr mag/cell
     absolute magnetization    =     0.01 Bohr mag/cell

     iteration #101     ecut=    90.00 Ry     beta= 0.20
     Davidson diagonalization with overlap
     ethr =  8.46E-11,  avg # of iterations =  1.0

     total cpu time spent up to now is     4161.6 secs

     total energy              =   -2510.37767511 Ry
     estimated scf accuracy    <       0.00000107 Ry

     total magnetization       =    -0.01 Bohr mag/cell
     absolute magnetization    =     0.01 Bohr mag/cell

     iteration #102     ecut=    90.00 Ry     beta= 0.20
     Davidson diagonalization with overlap
     ethr =  8.46E-11,  avg # of iterations =  1.0

     total cpu time spent up to now is     4200.7 secs

     total energy              =   -2510.37767516 Ry
     estimated scf accuracy    <       0.00000038 Ry

     total magnetization       =    -0.01 Bohr mag/cell
     absolute magnetization    =     0.01 Bohr mag/cell

     iteration #103     ecut=    90.00 Ry     beta= 0.20
     Davidson diagonalization with overlap
     ethr =  8.46E-11,  avg # of iterations =  1.0

     total cpu time spent up to now is     4239.6 secs

     total energy              =   -2510.37767501 Ry
     estimated scf accuracy    <       0.00000031 Ry

     total magnetization       =    -0.01 Bohr mag/cell
     absolute magnetization    =     0.01 Bohr mag/cell

     iteration #104     ecut=    90.00 Ry     beta= 0.20
     Davidson diagonalization with overlap
     ethr =  8.46E-11,  avg # of iterations =  1.1

     total cpu time spent up to now is     4279.3 secs

     total energy              =   -2510.37767509 Ry
     estimated scf accuracy    <       0.00000033 Ry

     total magnetization       =    -0.00 Bohr mag/cell
     absolute magnetization    =     0.01 Bohr mag/cell

     iteration #105     ecut=    90.00 Ry     beta= 0.20
     Davidson diagonalization with overlap
     ethr =  8.46E-11,  avg # of iterations =  1.1

     total cpu time spent up to now is     4318.9 secs

     total energy              =   -2510.37767499 Ry
     estimated scf accuracy    <       0.00000164 Ry

     total magnetization       =    -0.00 Bohr mag/cell
     absolute magnetization    =     0.01 Bohr mag/cell

     iteration #106     ecut=    90.00 Ry     beta= 0.20
     Davidson diagonalization with overlap
     ethr =  8.46E-11,  avg # of iterations =  1.6

     total cpu time spent up to now is     4362.2 secs

     total energy              =   -2510.37767501 Ry
     estimated scf accuracy    <       0.00000120 Ry

     total magnetization       =    -0.01 Bohr mag/cell
     absolute magnetization    =     0.01 Bohr mag/cell

     iteration #107     ecut=    90.00 Ry     beta= 0.20
     Davidson diagonalization with overlap
     ethr =  8.46E-11,  avg # of iterations =  1.2

     total cpu time spent up to now is     4403.7 secs

     total energy              =   -2510.37767504 Ry
     estimated scf accuracy    <       0.00000022 Ry

     total magnetization       =    -0.00 Bohr mag/cell
     absolute magnetization    =     0.01 Bohr mag/cell

     iteration #108     ecut=    90.00 Ry     beta= 0.20
     Davidson diagonalization with overlap
     ethr =  8.46E-11,  avg # of iterations =  1.0

     total cpu time spent up to now is     4442.9 secs

     total energy              =   -2510.37767506 Ry
     estimated scf accuracy    <       0.00000023 Ry

     total magnetization       =    -0.00 Bohr mag/cell
     absolute magnetization    =     0.01 Bohr mag/cell

     iteration #109     ecut=    90.00 Ry     beta= 0.20
     Davidson diagonalization with overlap
     ethr =  8.46E-11,  avg # of iterations =  1.0

     total cpu time spent up to now is     4481.8 secs

     total energy              =   -2510.37767507 Ry
     estimated scf accuracy    <       0.00000025 Ry

     total magnetization       =    -0.00 Bohr mag/cell
     absolute magnetization    =     0.01 Bohr mag/cell

     iteration #110     ecut=    90.00 Ry     beta= 0.20
     Davidson diagonalization with overlap
     ethr =  8.46E-11,  avg # of iterations =  1.0

     total cpu time spent up to now is     4521.7 secs

     total energy              =   -2510.37767507 Ry
     estimated scf accuracy    <       0.00000065 Ry

     total magnetization       =    -0.00 Bohr mag/cell
     absolute magnetization    =     0.01 Bohr mag/cell

     iteration #111     ecut=    90.00 Ry     beta= 0.20
     Davidson diagonalization with overlap
     ethr =  8.46E-11,  avg # of iterations =  1.0

     total cpu time spent up to now is     4560.8 secs

     total energy              =   -2510.37767505 Ry
     estimated scf accuracy    <       0.00000038 Ry

     total magnetization       =    -0.00 Bohr mag/cell
     absolute magnetization    =     0.01 Bohr mag/cell

     iteration #112     ecut=    90.00 Ry     beta= 0.20
     Davidson diagonalization with overlap
     ethr =  8.46E-11,  avg # of iterations =  1.4

     total cpu time spent up to now is     4602.5 secs

     total energy              =   -2510.37767506 Ry
     estimated scf accuracy    <       0.00000133 Ry

     total magnetization       =    -0.00 Bohr mag/cell
     absolute magnetization    =     0.01 Bohr mag/cell

     iteration #113     ecut=    90.00 Ry     beta= 0.20
     Davidson diagonalization with overlap
     ethr =  8.46E-11,  avg # of iterations =  1.0

     total cpu time spent up to now is     4641.5 secs

     total energy              =   -2510.37767495 Ry
     estimated scf accuracy    <       0.00000013 Ry

     total magnetization       =    -0.00 Bohr mag/cell
     absolute magnetization    =     0.01 Bohr mag/cell

     iteration #114     ecut=    90.00 Ry     beta= 0.20
     Davidson diagonalization with overlap
     ethr =  8.46E-11,  avg # of iterations =  1.6

     total cpu time spent up to now is     4683.8 secs

     total energy              =   -2510.37767503 Ry
     estimated scf accuracy    <       0.00000009 Ry

     total magnetization       =    -0.00 Bohr mag/cell
     absolute magnetization    =     0.01 Bohr mag/cell

     iteration #115     ecut=    90.00 Ry     beta= 0.20
     Davidson diagonalization with overlap
     ethr =  6.66E-11,  avg # of iterations =  1.0

     total cpu time spent up to now is     4722.8 secs

     total energy              =   -2510.37767503 Ry
     estimated scf accuracy    <       0.00000013 Ry

     total magnetization       =    -0.00 Bohr mag/cell
     absolute magnetization    =     0.01 Bohr mag/cell

     iteration #116     ecut=    90.00 Ry     beta= 0.20
     Davidson diagonalization with overlap
     ethr =  6.66E-11,  avg # of iterations =  1.0

     total cpu time spent up to now is     4761.8 secs

     total energy              =   -2510.37767503 Ry
     estimated scf accuracy    <       0.00000005 Ry

     total magnetization       =    -0.00 Bohr mag/cell
     absolute magnetization    =     0.01 Bohr mag/cell

     iteration #117     ecut=    90.00 Ry     beta= 0.20
     Davidson diagonalization with overlap
     ethr =  3.62E-11,  avg # of iterations =  1.0

     total cpu time spent up to now is     4800.8 secs

     total energy              =   -2510.37767504 Ry
     estimated scf accuracy    <       0.00000003 Ry

     total magnetization       =    -0.00 Bohr mag/cell
     absolute magnetization    =     0.01 Bohr mag/cell

     iteration #118     ecut=    90.00 Ry     beta= 0.20
     Davidson diagonalization with overlap
     ethr =  2.19E-11,  avg # of iterations =  1.0

     total cpu time spent up to now is     4839.8 secs

     total energy              =   -2510.37767503 Ry
     estimated scf accuracy    <       0.00000003 Ry

     total magnetization       =    -0.00 Bohr mag/cell
     absolute magnetization    =     0.01 Bohr mag/cell

     iteration #119     ecut=    90.00 Ry     beta= 0.20
     Davidson diagonalization with overlap
     ethr =  2.11E-11,  avg # of iterations =  1.0

     total cpu time spent up to now is     4878.8 secs

     total energy              =   -2510.37767504 Ry
     estimated scf accuracy    <       0.00000008 Ry

     total magnetization       =    -0.00 Bohr mag/cell
     absolute magnetization    =     0.01 Bohr mag/cell

     iteration #120     ecut=    90.00 Ry     beta= 0.20
     Davidson diagonalization with overlap
     ethr =  2.11E-11,  avg # of iterations =  1.0

     total cpu time spent up to now is     4917.9 secs

     total energy              =   -2510.37767503 Ry
     estimated scf accuracy    <       0.00000006 Ry

     total magnetization       =    -0.00 Bohr mag/cell
     absolute magnetization    =     0.01 Bohr mag/cell

     iteration #121     ecut=    90.00 Ry     beta= 0.20
     Davidson diagonalization with overlap
     ethr =  2.11E-11,  avg # of iterations =  1.0

     total cpu time spent up to now is     4956.9 secs

     total energy              =   -2510.37767503 Ry
     estimated scf accuracy    <       0.00000007 Ry

     total magnetization       =    -0.00 Bohr mag/cell
     absolute magnetization    =     0.01 Bohr mag/cell

     iteration #122     ecut=    90.00 Ry     beta= 0.20
     Davidson diagonalization with overlap
     ethr =  2.11E-11,  avg # of iterations =  1.0

     total cpu time spent up to now is     4997.8 secs

     total energy              =   -2510.37767502 Ry
     estimated scf accuracy    <       0.00000004 Ry

     total magnetization       =    -0.00 Bohr mag/cell
     absolute magnetization    =     0.01 Bohr mag/cell

     iteration #123     ecut=    90.00 Ry     beta= 0.20
     Davidson diagonalization with overlap
     ethr =  2.11E-11,  avg # of iterations =  1.0

     total cpu time spent up to now is     5036.8 secs

     total energy              =   -2510.37767503 Ry
     estimated scf accuracy    <       0.00000003 Ry

     total magnetization       =    -0.00 Bohr mag/cell
     absolute magnetization    =     0.01 Bohr mag/cell

     iteration #124     ecut=    90.00 Ry     beta= 0.20
     Davidson diagonalization with overlap
     ethr =  2.11E-11,  avg # of iterations =  1.0

     total cpu time spent up to now is     5076.2 secs

     total energy              =   -2510.37767501 Ry
     estimated scf accuracy    <       0.00000016 Ry

     total magnetization       =    -0.00 Bohr mag/cell
     absolute magnetization    =     0.01 Bohr mag/cell

     iteration #125     ecut=    90.00 Ry     beta= 0.20
     Davidson diagonalization with overlap
     ethr =  2.11E-11,  avg # of iterations =  1.2

     total cpu time spent up to now is     5116.1 secs

     total energy              =   -2510.37767502 Ry
     estimated scf accuracy    <       0.00000012 Ry

     total magnetization       =     0.00 Bohr mag/cell
     absolute magnetization    =     0.00 Bohr mag/cell

     iteration #126     ecut=    90.00 Ry     beta= 0.20
     Davidson diagonalization with overlap
     ethr =  2.11E-11,  avg # of iterations =  1.0

     total cpu time spent up to now is     5155.2 secs

     total energy              =   -2510.37767502 Ry
     estimated scf accuracy    <       0.00000008 Ry

     total magnetization       =    -0.00 Bohr mag/cell
     absolute magnetization    =     0.00 Bohr mag/cell

     iteration #127     ecut=    90.00 Ry     beta= 0.20
     Davidson diagonalization with overlap
     ethr =  2.11E-11,  avg # of iterations =  1.0

     total cpu time spent up to now is     5194.6 secs

     total energy              =   -2510.37767501 Ry
     estimated scf accuracy    <       0.00000003 Ry

     total magnetization       =    -0.00 Bohr mag/cell
     absolute magnetization    =     0.00 Bohr mag/cell

     iteration #128     ecut=    90.00 Ry     beta= 0.20
     Davidson diagonalization with overlap
     ethr =  2.11E-11,  avg # of iterations =  1.0

     total cpu time spent up to now is     5233.8 secs

     total energy              =   -2510.37767502 Ry
     estimated scf accuracy    <       0.00000001 Ry

     total magnetization       =     0.00 Bohr mag/cell
     absolute magnetization    =     0.00 Bohr mag/cell

     iteration #129     ecut=    90.00 Ry     beta= 0.20
     Davidson diagonalization with overlap
     ethr =  1.11E-11,  avg # of iterations =  1.0

     total cpu time spent up to now is     5273.0 secs

     total energy              =   -2510.37767502 Ry
     estimated scf accuracy    <       0.00000003 Ry

     total magnetization       =     0.00 Bohr mag/cell
     absolute magnetization    =     0.00 Bohr mag/cell

     iteration #130     ecut=    90.00 Ry     beta= 0.20
     Davidson diagonalization with overlap
     ethr =  1.11E-11,  avg # of iterations =  1.0

     total cpu time spent up to now is     5312.1 secs

     total energy              =   -2510.37767502 Ry
     estimated scf accuracy    <       0.00000002 Ry

     total magnetization       =     0.00 Bohr mag/cell
     absolute magnetization    =     0.00 Bohr mag/cell

     iteration #131     ecut=    90.00 Ry     beta= 0.20
     Davidson diagonalization with overlap
     ethr =  1.11E-11,  avg # of iterations =  1.0

     total cpu time spent up to now is     5351.3 secs

     total energy              =   -2510.37767502 Ry
     estimated scf accuracy    <       0.00000001 Ry

     total magnetization       =     0.00 Bohr mag/cell
     absolute magnetization    =     0.00 Bohr mag/cell

     iteration #132     ecut=    90.00 Ry     beta= 0.20
     Davidson diagonalization with overlap
     ethr =  1.11E-11,  avg # of iterations =  1.0

     total cpu time spent up to now is     5390.4 secs

     total energy              =   -2510.37767502 Ry
     estimated scf accuracy    <       0.00000001 Ry

     total magnetization       =     0.00 Bohr mag/cell
     absolute magnetization    =     0.00 Bohr mag/cell

     iteration #133     ecut=    90.00 Ry     beta= 0.20
     Davidson diagonalization with overlap
     ethr =  8.70E-12,  avg # of iterations =  1.0

     total cpu time spent up to now is     5429.4 secs

     total energy              =   -2510.37767502 Ry
     estimated scf accuracy    <       0.00000001 Ry

     total magnetization       =     0.00 Bohr mag/cell
     absolute magnetization    =     0.00 Bohr mag/cell

     iteration #134     ecut=    90.00 Ry     beta= 0.20
     Davidson diagonalization with overlap
     ethr =  8.70E-12,  avg # of iterations =  1.0

     total cpu time spent up to now is     5468.4 secs

     total energy              =   -2510.37767502 Ry
     estimated scf accuracy    <       0.00000003 Ry

     total magnetization       =     0.00 Bohr mag/cell
     absolute magnetization    =     0.00 Bohr mag/cell

     iteration #135     ecut=    90.00 Ry     beta= 0.20
     Davidson diagonalization with overlap
     ethr =  8.70E-12,  avg # of iterations =  1.0

     total cpu time spent up to now is     5507.5 secs

     total energy              =   -2510.37767502 Ry
     estimated scf accuracy    <       0.00000002 Ry

     total magnetization       =     0.00 Bohr mag/cell
     absolute magnetization    =     0.00 Bohr mag/cell

     iteration #136     ecut=    90.00 Ry     beta= 0.20
     Davidson diagonalization with overlap
     ethr =  8.70E-12,  avg # of iterations =  1.0

     total cpu time spent up to now is     5546.7 secs

     total energy              =   -2510.37767502 Ry
     estimated scf accuracy    <       0.00000002 Ry

     total magnetization       =     0.00 Bohr mag/cell
     absolute magnetization    =     0.00 Bohr mag/cell

     iteration #137     ecut=    90.00 Ry     beta= 0.20
     Davidson diagonalization with overlap
     ethr =  8.70E-12,  avg # of iterations =  1.0

     total cpu time spent up to now is     5587.1 secs

     total energy              =   -2510.37767502 Ry
     estimated scf accuracy    <       0.00000002 Ry

     total magnetization       =     0.00 Bohr mag/cell
     absolute magnetization    =     0.00 Bohr mag/cell

     iteration #138     ecut=    90.00 Ry     beta= 0.20
     Davidson diagonalization with overlap
     ethr =  8.70E-12,  avg # of iterations =  1.0

     total cpu time spent up to now is     5626.2 secs

     total energy              =   -2510.37767502 Ry
     estimated scf accuracy    <       0.00000002 Ry

     total magnetization       =     0.00 Bohr mag/cell
     absolute magnetization    =     0.00 Bohr mag/cell

     iteration #139     ecut=    90.00 Ry     beta= 0.20
     Davidson diagonalization with overlap
     ethr =  8.70E-12,  avg # of iterations =  1.0

     total cpu time spent up to now is     5665.3 secs

     total energy              =   -2510.37767502 Ry
     estimated scf accuracy    <       0.00000001 Ry

     total magnetization       =     0.00 Bohr mag/cell
     absolute magnetization    =     0.00 Bohr mag/cell

     iteration #140     ecut=    90.00 Ry     beta= 0.20
     Davidson diagonalization with overlap
     ethr =  8.70E-12,  avg # of iterations =  1.0

     total cpu time spent up to now is     5704.3 secs

     total energy              =   -2510.37767501 Ry
     estimated scf accuracy    <       0.00000006 Ry

     total magnetization       =     0.00 Bohr mag/cell
     absolute magnetization    =     0.00 Bohr mag/cell

     iteration #141     ecut=    90.00 Ry     beta= 0.20
     Davidson diagonalization with overlap
     ethr =  8.70E-12,  avg # of iterations =  1.0

     total cpu time spent up to now is     5743.2 secs

     total energy              =   -2510.37767501 Ry
     estimated scf accuracy    <       0.00000004 Ry

     total magnetization       =     0.00 Bohr mag/cell
     absolute magnetization    =     0.00 Bohr mag/cell

     iteration #142     ecut=    90.00 Ry     beta= 0.20
     Davidson diagonalization with overlap
     ethr =  8.70E-12,  avg # of iterations =  1.0

     total cpu time spent up to now is     5782.2 secs

     total energy              =   -2510.37767502 Ry
     estimated scf accuracy    <       0.00000005 Ry

     total magnetization       =     0.00 Bohr mag/cell
     absolute magnetization    =     0.00 Bohr mag/cell

     iteration #143     ecut=    90.00 Ry     beta= 0.20
     Davidson diagonalization with overlap
     ethr =  8.70E-12,  avg # of iterations =  1.0

     total cpu time spent up to now is     5821.2 secs

     total energy              =   -2510.37767501 Ry
     estimated scf accuracy    <       0.00000001 Ry

     total magnetization       =     0.00 Bohr mag/cell
     absolute magnetization    =     0.00 Bohr mag/cell

     iteration #144     ecut=    90.00 Ry     beta= 0.20
     Davidson diagonalization with overlap
     ethr =  8.70E-12,  avg # of iterations =  1.0

     total cpu time spent up to now is     5860.3 secs

     total energy              =   -2510.37767501 Ry
     estimated scf accuracy    <       0.00000004 Ry

     total magnetization       =     0.00 Bohr mag/cell
     absolute magnetization    =     0.00 Bohr mag/cell

     iteration #145     ecut=    90.00 Ry     beta= 0.20
     Davidson diagonalization with overlap
     ethr =  8.70E-12,  avg # of iterations =  1.0

     total cpu time spent up to now is     5899.3 secs

     total energy              =   -2510.37767502 Ry
     estimated scf accuracy    <       0.00000003 Ry

     total magnetization       =     0.00 Bohr mag/cell
     absolute magnetization    =     0.00 Bohr mag/cell

     iteration #146     ecut=    90.00 Ry     beta= 0.20
     Davidson diagonalization with overlap
     ethr =  8.70E-12,  avg # of iterations =  1.0

     total cpu time spent up to now is     5938.3 secs

     total energy              =   -2510.37767502 Ry
     estimated scf accuracy    <       0.00000004 Ry

     total magnetization       =     0.00 Bohr mag/cell
     absolute magnetization    =     0.00 Bohr mag/cell

     iteration #147     ecut=    90.00 Ry     beta= 0.20
     Davidson diagonalization with overlap
     ethr =  8.70E-12,  avg # of iterations =  1.0

     total cpu time spent up to now is     5977.4 secs

     total energy              =   -2510.37767502 Ry
     estimated scf accuracy    <       0.00000001 Ry

     total magnetization       =     0.00 Bohr mag/cell
     absolute magnetization    =     0.00 Bohr mag/cell

     iteration #148     ecut=    90.00 Ry     beta= 0.20
     Davidson diagonalization with overlap
     ethr =  8.64E-12,  avg # of iterations =  1.0

     Magnetic moment per site:
     atom:    1    charge:   13.9461    magn:   -0.0000    constr:    0.0000
     atom:    2    charge:   15.0962    magn:    0.0006    constr:    0.0000
     atom:    3    charge:   13.9461    magn:   -0.0001    constr:    0.0000
     atom:    4    charge:   15.0962    magn:    0.0001    constr:    0.0000
     atom:    5    charge:   13.9468    magn:   -0.0000    constr:    0.0000
     atom:    6    charge:   15.0954    magn:   -0.0001    constr:    0.0000
     atom:    7    charge:   13.9468    magn:   -0.0002    constr:    0.0000
     atom:    8    charge:   15.0954    magn:   -0.0003    constr:    0.0000

     total cpu time spent up to now is     6016.6 secs

     End of self-consistent calculation

     Number of k-points >= 100: set verbosity='high' to print the bands.

     the Fermi energy is    17.0574 ev

!    total energy              =   -2510.37767502 Ry
     estimated scf accuracy    <          6.1E-09 Ry
     smearing contrib. (-TS)   =      -0.01843355 Ry
     internal energy E=F+TS    =   -2510.35924147 Ry

     The total energy is F=E-TS. E is the sum of the following terms:
     one-electron contribution =   -1162.19252264 Ry
     hartree contribution      =     660.57856518 Ry
     xc contribution           =    -269.49580681 Ry
     ewald contribution        =   -1434.65194834 Ry
     one-center paw contrib.   =    -304.59752885 Ry

     total magnetization       =    -0.00 Bohr mag/cell
     absolute magnetization    =     0.00 Bohr mag/cell

     convergence has been achieved in 148 iterations

     Forces acting on atoms (cartesian axes, Ry/au):

     atom    1 type  1   force =    -0.00008924   -0.00387728    0.00027591
     atom    2 type  2   force =    -0.00004848    0.00069517   -0.00007073
     atom    3 type  1   force =    -0.00008956   -0.00387623    0.00027593
     atom    4 type  2   force =    -0.00004849    0.00069483   -0.00007085
     atom    5 type  1   force =     0.00005901    0.00229759   -0.00014170
     atom    6 type  2   force =     0.00007878    0.00088402   -0.00006348
     atom    7 type  1   force =     0.00005913    0.00229770   -0.00014154
     atom    8 type  2   force =     0.00007886    0.00088420   -0.00006354

     Total force =     0.006588     Total SCF correction =     0.000005


     Computing stress (Cartesian axis) and pressure

          total   stress  (Ry/bohr**3)                   (kbar)     P=       -4.61
  -0.00007745   0.00000021  -0.00000001          -11.39        0.03       -0.00
   0.00000021  -0.00000485   0.00000026            0.03       -0.71        0.04
  -0.00000001   0.00000026  -0.00001181           -0.00        0.04       -1.74

     Energy error            =      1.5E-04
     Gradient error          =      3.9E-03

     number of scf cycles    =   3
     number of bfgs steps    =   2

     energy   old            =   -2510.3775228333 Ry
     energy   new            =   -2510.3776750222 Ry

     CASE: energy  _new < energy  _old


     WARNING: bfgs curvature condition failed, Theta= 0.782
     new trust radius        =       0.0633415831 bohr
     new conv_thr            =       0.0000000015 Ry


ATOMIC_POSITIONS (angstrom)
Fe           -0.0179647774        2.2253798189       -0.0279114605
Co            2.2701746013       -0.0399861103        2.2477301624
Fe           -0.0179639566       -0.0513094185        2.2487868554
Co            2.2701740003        2.2367176266       -0.0289709093
Fe            2.2768267062        0.0420768128       -0.0400161448
Co           -0.0175276906        2.2372628214        2.2477481757
Fe            2.2768195843        2.3187778848        2.2366831943
Co           -0.0175271131       -0.0394338120       -0.0289520265



     Writing output data file ./pwscf.save/
     NEW-OLD atomic charge density approx. for the potential

     Check: negative core charge=   -0.000012
     Generating pointlists ...
     new r_m :   0.1978 (alat units)  1.7108 (a.u.) for type    1
     new r_m :   0.1978 (alat units)  1.7108 (a.u.) for type    2

     total cpu time spent up to now is     6044.5 secs

     Self-consistent Calculation

     iteration #  1     ecut=    90.00 Ry     beta= 0.20
     Davidson diagonalization with overlap
     c_bands:  1 eigenvalues not converged
     c_bands:  1 eigenvalues not converged
     ethr =  1.00E-06,  avg # of iterations = 12.6

     total cpu time spent up to now is     6276.0 secs

     total energy              =   -2510.37965011 Ry
     estimated scf accuracy    <       0.00141147 Ry

     total magnetization       =    -0.00 Bohr mag/cell
     absolute magnetization    =     0.00 Bohr mag/cell

     iteration #  2     ecut=    90.00 Ry     beta= 0.20
     Davidson diagonalization with overlap
     ethr =  1.07E-06,  avg # of iterations =  1.3

     total cpu time spent up to now is     6316.5 secs

     total energy              =   -2510.37936629 Ry
     estimated scf accuracy    <       0.00450971 Ry

     total magnetization       =    -0.00 Bohr mag/cell
     absolute magnetization    =     0.00 Bohr mag/cell

     iteration #  3     ecut=    90.00 Ry     beta= 0.20
     Davidson diagonalization with overlap
     ethr =  1.07E-06,  avg # of iterations =  1.0

     total cpu time spent up to now is     6355.5 secs

     total energy              =   -2510.37916395 Ry
     estimated scf accuracy    <       0.00352704 Ry

     total magnetization       =    -0.00 Bohr mag/cell
     absolute magnetization    =     0.00 Bohr mag/cell

     iteration #  4     ecut=    90.00 Ry     beta= 0.20
     Davidson diagonalization with overlap
     ethr =  1.07E-06,  avg # of iterations =  1.0

     total cpu time spent up to now is     6394.6 secs

     total energy              =   -2510.37858335 Ry
     estimated scf accuracy    <       0.01105020 Ry

     total magnetization       =    -0.00 Bohr mag/cell
     absolute magnetization    =     0.00 Bohr mag/cell

     iteration #  5     ecut=    90.00 Ry     beta= 0.20
     Davidson diagonalization with overlap
     ethr =  1.07E-06,  avg # of iterations =  1.0

     total cpu time spent up to now is     6433.6 secs

     total energy              =   -2510.37832784 Ry
     estimated scf accuracy    <       0.00817000 Ry

     total magnetization       =    -0.00 Bohr mag/cell
     absolute magnetization    =     0.01 Bohr mag/cell

     iteration #  6     ecut=    90.00 Ry     beta= 0.20
     Davidson diagonalization with overlap
     ethr =  1.07E-06,  avg # of iterations =  1.0

     total cpu time spent up to now is     6472.5 secs

     total energy              =   -2510.37850487 Ry
     estimated scf accuracy    <       0.00032020 Ry

     total magnetization       =    -0.00 Bohr mag/cell
     absolute magnetization    =     0.01 Bohr mag/cell

     iteration #  7     ecut=    90.00 Ry     beta= 0.20
     Davidson diagonalization with overlap
     ethr =  2.43E-07,  avg # of iterations =  1.0

     total cpu time spent up to now is     6511.5 secs

     total energy              =   -2510.37831253 Ry
     estimated scf accuracy    <       0.00015811 Ry

     total magnetization       =    -0.00 Bohr mag/cell
     absolute magnetization    =     0.01 Bohr mag/cell

     iteration #  8     ecut=    90.00 Ry     beta= 0.20
     Davidson diagonalization with overlap
     ethr =  1.20E-07,  avg # of iterations =  1.0

     total cpu time spent up to now is     6550.4 secs

     total energy              =   -2510.37830846 Ry
     estimated scf accuracy    <       0.00011384 Ry

     total magnetization       =    -0.00 Bohr mag/cell
     absolute magnetization    =     0.01 Bohr mag/cell

     iteration #  9     ecut=    90.00 Ry     beta= 0.20
     Davidson diagonalization with overlap
     ethr =  8.62E-08,  avg # of iterations =  1.0

     total cpu time spent up to now is     6589.5 secs

     total energy              =   -2510.37829427 Ry
     estimated scf accuracy    <       0.00004263 Ry

     total magnetization       =    -0.00 Bohr mag/cell
     absolute magnetization    =     0.01 Bohr mag/cell

     iteration # 10     ecut=    90.00 Ry     beta= 0.20
     Davidson diagonalization with overlap
     ethr =  3.23E-08,  avg # of iterations =  2.0

     total cpu time spent up to now is     6634.5 secs

     total energy              =   -2510.37828177 Ry
     estimated scf accuracy    <       0.00009473 Ry

     total magnetization       =    -0.00 Bohr mag/cell
     absolute magnetization    =     0.01 Bohr mag/cell

     iteration # 11     ecut=    90.00 Ry     beta= 0.20
     Davidson diagonalization with overlap
     ethr =  3.23E-08,  avg # of iterations =  1.0

     total cpu time spent up to now is     6674.1 secs

     total energy              =   -2510.37827945 Ry
     estimated scf accuracy    <       0.00000136 Ry

     total magnetization       =    -0.00 Bohr mag/cell
     absolute magnetization    =     0.01 Bohr mag/cell

     iteration # 12     ecut=    90.00 Ry     beta= 0.20
     Davidson diagonalization with overlap
     ethr =  1.03E-09,  avg # of iterations =  5.0

     total cpu time spent up to now is     6749.5 secs

     total energy              =   -2510.37827959 Ry
     estimated scf accuracy    <       0.00000305 Ry

     total magnetization       =    -0.00 Bohr mag/cell
     absolute magnetization    =     0.01 Bohr mag/cell

     iteration # 13     ecut=    90.00 Ry     beta= 0.20
     Davidson diagonalization with overlap
     ethr =  1.03E-09,  avg # of iterations =  1.0

     total cpu time spent up to now is     6791.1 secs

     total energy              =   -2510.37827957 Ry
     estimated scf accuracy    <       0.00000294 Ry

     total magnetization       =    -0.00 Bohr mag/cell
     absolute magnetization    =     0.01 Bohr mag/cell

     iteration # 14     ecut=    90.00 Ry     beta= 0.20
     Davidson diagonalization with overlap
     ethr =  1.03E-09,  avg # of iterations =  1.0

     total cpu time spent up to now is     6831.6 secs

     total energy              =   -2510.37827917 Ry
     estimated scf accuracy    <       0.00001543 Ry

     total magnetization       =    -0.00 Bohr mag/cell
     absolute magnetization    =     0.01 Bohr mag/cell

     iteration # 15     ecut=    90.00 Ry     beta= 0.20
     Davidson diagonalization with overlap
     ethr =  1.03E-09,  avg # of iterations =  1.1

     total cpu time spent up to now is     6872.2 secs

     total energy              =   -2510.37827864 Ry
[...]

     total energy              =   -2510.37827870 Ry
     estimated scf accuracy    <       0.00000005 Ry

     total magnetization       =    -0.00 Bohr mag/cell
     absolute magnetization    =     0.00 Bohr mag/cell

     iteration # 98     ecut=    90.00 Ry     beta= 0.20
     Davidson diagonalization with overlap
     ethr =  1.27E-11,  avg # of iterations =  1.0

     total cpu time spent up to now is    10178.8 secs

     total energy              =   -2510.37827871 Ry
     estimated scf accuracy    <       0.00000018 Ry

     total magnetization       =    -0.00 Bohr mag/cell
     absolute magnetization    =     0.00 Bohr mag/cell

     iteration # 99     ecut=    90.00 Ry     beta= 0.20
     Davidson diagonalization with overlap
     ethr =  1.27E-11,  avg # of iterations =  1.1

     total cpu time spent up to now is    10218.2 secs

     total energy              =   -2510.37827871 Ry
     estimated scf accuracy    <       0.00000007 Ry

     total magnetization       =     0.00 Bohr mag/cell
     absolute magnetization    =     0.00 Bohr mag/cell

     iteration #100     ecut=    90.00 Ry     beta= 0.20
     Davidson diagonalization with overlap
     ethr =  1.27E-11,  avg # of iterations =  1.0

     total cpu time spent up to now is    10257.4 secs

     total energy              =   -2510.37827870 Ry
     estimated scf accuracy    <       0.00000004 Ry

     total magnetization       =    -0.00 Bohr mag/cell
     absolute magnetization    =     0.00 Bohr mag/cell

     iteration #101     ecut=    90.00 Ry     beta= 0.20
     Davidson diagonalization with overlap
     ethr =  1.27E-11,  avg # of iterations =  1.0

     total cpu time spent up to now is    10296.5 secs

     total energy              =   -2510.37827870 Ry
     estimated scf accuracy    <          5.0E-09 Ry

     total magnetization       =    -0.00 Bohr mag/cell
     absolute magnetization    =     0.00 Bohr mag/cell

     iteration #102     ecut=    90.00 Ry     beta= 0.20
     Davidson diagonalization with overlap
     ethr =  3.76E-12,  avg # of iterations =  1.0

     total cpu time spent up to now is    10335.7 secs

     total energy              =   -2510.37827870 Ry
     estimated scf accuracy    <          5.7E-09 Ry

     total magnetization       =    -0.00 Bohr mag/cell
     absolute magnetization    =     0.00 Bohr mag/cell

     iteration #103     ecut=    90.00 Ry     beta= 0.20
     Davidson diagonalization with overlap
     ethr =  3.76E-12,  avg # of iterations =  1.0

     total cpu time spent up to now is    10377.2 secs

     total energy              =   -2510.37827870 Ry
     estimated scf accuracy    <          4.9E-09 Ry

     total magnetization       =    -0.00 Bohr mag/cell
     absolute magnetization    =     0.00 Bohr mag/cell

     iteration #104     ecut=    90.00 Ry     beta= 0.20
     Davidson diagonalization with overlap
     ethr =  3.73E-12,  avg # of iterations =  1.0

     total cpu time spent up to now is    10416.9 secs

     total energy              =   -2510.37827870 Ry
     estimated scf accuracy    <          9.5E-09 Ry

     total magnetization       =    -0.00 Bohr mag/cell
     absolute magnetization    =     0.00 Bohr mag/cell

     iteration #105     ecut=    90.00 Ry     beta= 0.20
     Davidson diagonalization with overlap
     ethr =  3.73E-12,  avg # of iterations =  1.0

     total cpu time spent up to now is    10456.6 secs

     total energy              =   -2510.37827870 Ry
     estimated scf accuracy    <          7.9E-09 Ry

     total magnetization       =    -0.00 Bohr mag/cell
     absolute magnetization    =     0.00 Bohr mag/cell

     iteration #106     ecut=    90.00 Ry     beta= 0.20
     Davidson diagonalization with overlap
     ethr =  3.73E-12,  avg # of iterations =  1.0

     total cpu time spent up to now is    10496.4 secs

     total energy              =   -2510.37827870 Ry
     estimated scf accuracy    <          5.7E-09 Ry

     total magnetization       =    -0.00 Bohr mag/cell
     absolute magnetization    =     0.00 Bohr mag/cell

     iteration #107     ecut=    90.00 Ry     beta= 0.20
     Davidson diagonalization with overlap
     ethr =  3.73E-12,  avg # of iterations =  1.0

     total cpu time spent up to now is    10536.3 secs

     total energy              =   -2510.37827870 Ry
     estimated scf accuracy    <          6.2E-09 Ry

     total magnetization       =    -0.00 Bohr mag/cell
     absolute magnetization    =     0.00 Bohr mag/cell

     iteration #108     ecut=    90.00 Ry     beta= 0.20
     Davidson diagonalization with overlap
     ethr =  3.73E-12,  avg # of iterations =  1.0

     total cpu time spent up to now is    10576.0 secs

     total energy              =   -2510.37827870 Ry
     estimated scf accuracy    <          6.0E-09 Ry

     total magnetization       =    -0.00 Bohr mag/cell
     absolute magnetization    =     0.00 Bohr mag/cell

     iteration #109     ecut=    90.00 Ry     beta= 0.20
     Davidson diagonalization with overlap
     ethr =  3.73E-12,  avg # of iterations =  1.0

     total cpu time spent up to now is    10615.8 secs

     total energy              =   -2510.37827870 Ry
     estimated scf accuracy    <          8.0E-09 Ry

     total magnetization       =    -0.00 Bohr mag/cell
     absolute magnetization    =     0.00 Bohr mag/cell

     iteration #110     ecut=    90.00 Ry     beta= 0.20
     Davidson diagonalization with overlap
     ethr =  3.73E-12,  avg # of iterations =  1.0

     total cpu time spent up to now is    10655.6 secs

     total energy              =   -2510.37827870 Ry
     estimated scf accuracy    <          5.7E-09 Ry

     total magnetization       =    -0.00 Bohr mag/cell
     absolute magnetization    =     0.00 Bohr mag/cell

     iteration #111     ecut=    90.00 Ry     beta= 0.20
     Davidson diagonalization with overlap
     ethr =  3.73E-12,  avg # of iterations =  1.0

     total cpu time spent up to now is    10695.4 secs

     total energy              =   -2510.37827870 Ry
     estimated scf accuracy    <          6.9E-09 Ry

     total magnetization       =    -0.00 Bohr mag/cell
     absolute magnetization    =     0.00 Bohr mag/cell

     iteration #112     ecut=    90.00 Ry     beta= 0.20
     Davidson diagonalization with overlap
     ethr =  3.73E-12,  avg # of iterations =  1.0

     total cpu time spent up to now is    10735.2 secs

     total energy              =   -2510.37827870 Ry
     estimated scf accuracy    <          5.8E-09 Ry

     total magnetization       =    -0.00 Bohr mag/cell
     absolute magnetization    =     0.00 Bohr mag/cell

     iteration #113     ecut=    90.00 Ry     beta= 0.20
     Davidson diagonalization with overlap
     ethr =  3.73E-12,  avg # of iterations =  1.0

     total cpu time spent up to now is    10774.9 secs

     total energy              =   -2510.37827870 Ry
     estimated scf accuracy    <          5.6E-09 Ry

     total magnetization       =    -0.00 Bohr mag/cell
     absolute magnetization    =     0.00 Bohr mag/cell

     iteration #114     ecut=    90.00 Ry     beta= 0.20
     Davidson diagonalization with overlap
     ethr =  3.73E-12,  avg # of iterations =  1.0

     total cpu time spent up to now is    10814.7 secs

     total energy              =   -2510.37827870 Ry
     estimated scf accuracy    <          7.4E-09 Ry

     total magnetization       =    -0.00 Bohr mag/cell
     absolute magnetization    =     0.00 Bohr mag/cell

     iteration #115     ecut=    90.00 Ry     beta= 0.20
     Davidson diagonalization with overlap
     ethr =  3.73E-12,  avg # of iterations =  1.0

     total cpu time spent up to now is    10854.5 secs

     total energy              =   -2510.37827870 Ry
     estimated scf accuracy    <       0.00000001 Ry

     total magnetization       =    -0.00 Bohr mag/cell
     absolute magnetization    =     0.00 Bohr mag/cell

     iteration #116     ecut=    90.00 Ry     beta= 0.20
     Davidson diagonalization with overlap
     ethr =  3.73E-12,  avg # of iterations =  1.0

     total cpu time spent up to now is    10894.3 secs

     total energy              =   -2510.37827870 Ry
     estimated scf accuracy    <          6.5E-09 Ry

     total magnetization       =    -0.00 Bohr mag/cell
     absolute magnetization    =     0.00 Bohr mag/cell

     iteration #117     ecut=    90.00 Ry     beta= 0.20
     Davidson diagonalization with overlap
     ethr =  3.73E-12,  avg # of iterations =  1.0

     total cpu time spent up to now is    10933.9 secs

     total energy              =   -2510.37827870 Ry
     estimated scf accuracy    <          9.4E-09 Ry

     total magnetization       =    -0.00 Bohr mag/cell
     absolute magnetization    =     0.00 Bohr mag/cell

     iteration #118     ecut=    90.00 Ry     beta= 0.20
     Davidson diagonalization with overlap
     ethr =  3.73E-12,  avg # of iterations =  1.0

     total cpu time spent up to now is    10973.1 secs

     total energy              =   -2510.37827870 Ry
     estimated scf accuracy    <          8.5E-09 Ry

     total magnetization       =    -0.00 Bohr mag/cell
     absolute magnetization    =     0.00 Bohr mag/cell

     iteration #119     ecut=    90.00 Ry     beta= 0.20
     Davidson diagonalization with overlap
     ethr =  3.73E-12,  avg # of iterations =  1.0

     total cpu time spent up to now is    11014.9 secs

     total energy              =   -2510.37827870 Ry
     estimated scf accuracy    <       0.00000001 Ry

     total magnetization       =    -0.00 Bohr mag/cell
     absolute magnetization    =     0.00 Bohr mag/cell

     iteration #120     ecut=    90.00 Ry     beta= 0.20
     Davidson diagonalization with overlap
     ethr =  3.73E-12,  avg # of iterations =  1.0

     total cpu time spent up to now is    11054.8 secs

     total energy              =   -2510.37827870 Ry
     estimated scf accuracy    <       0.00000002 Ry

     total magnetization       =    -0.00 Bohr mag/cell
     absolute magnetization    =     0.00 Bohr mag/cell

     iteration #121     ecut=    90.00 Ry     beta= 0.20
     Davidson diagonalization with overlap
     ethr =  3.73E-12,  avg # of iterations =  1.0

     total cpu time spent up to now is    11094.3 secs

     total energy              =   -2510.37827870 Ry
     estimated scf accuracy    <       0.00000002 Ry

     total magnetization       =    -0.00 Bohr mag/cell
     absolute magnetization    =     0.00 Bohr mag/cell

     iteration #122     ecut=    90.00 Ry     beta= 0.20
     Davidson diagonalization with overlap
     ethr =  3.73E-12,  avg # of iterations =  1.0

     total cpu time spent up to now is    11133.7 secs

     total energy              =   -2510.37827870 Ry
     estimated scf accuracy    <          5.3E-09 Ry

     total magnetization       =    -0.00 Bohr mag/cell
     absolute magnetization    =     0.00 Bohr mag/cell

     iteration #123     ecut=    90.00 Ry     beta= 0.20
     Davidson diagonalization with overlap
     ethr =  3.73E-12,  avg # of iterations =  2.0

     total cpu time spent up to now is    11183.0 secs

     total energy              =   -2510.37827870 Ry
     estimated scf accuracy    <          6.0E-09 Ry

     total magnetization       =    -0.00 Bohr mag/cell
     absolute magnetization    =     0.00 Bohr mag/cell

     iteration #124     ecut=    90.00 Ry     beta= 0.20
     Davidson diagonalization with overlap
     ethr =  3.73E-12,  avg # of iterations =  1.0

     total cpu time spent up to now is    11222.4 secs

     total energy              =   -2510.37827870 Ry
     estimated scf accuracy    <          4.8E-09 Ry

     total magnetization       =    -0.00 Bohr mag/cell
     absolute magnetization    =     0.00 Bohr mag/cell

     iteration #125     ecut=    90.00 Ry     beta= 0.20
     Davidson diagonalization with overlap
     ethr =  3.65E-12,  avg # of iterations =  1.0

     total cpu time spent up to now is    11261.7 secs

     total energy              =   -2510.37827870 Ry
     estimated scf accuracy    <          5.4E-09 Ry

     total magnetization       =    -0.00 Bohr mag/cell
     absolute magnetization    =     0.00 Bohr mag/cell

     iteration #126     ecut=    90.00 Ry     beta= 0.20
     Davidson diagonalization with overlap
     ethr =  3.65E-12,  avg # of iterations =  1.0

     total cpu time spent up to now is    11301.0 secs

     total energy              =   -2510.37827871 Ry
     estimated scf accuracy    <          5.0E-09 Ry

     total magnetization       =    -0.00 Bohr mag/cell
     absolute magnetization    =     0.00 Bohr mag/cell

     iteration #127     ecut=    90.00 Ry     beta= 0.20
     Davidson diagonalization with overlap
     ethr =  3.65E-12,  avg # of iterations =  1.0

     total cpu time spent up to now is    11340.3 secs

     total energy              =   -2510.37827870 Ry
     estimated scf accuracy    <       0.00000001 Ry

     total magnetization       =    -0.00 Bohr mag/cell
     absolute magnetization    =     0.00 Bohr mag/cell

     iteration #128     ecut=    90.00 Ry     beta= 0.20
     Davidson diagonalization with overlap
     ethr =  3.65E-12,  avg # of iterations =  1.0

     total cpu time spent up to now is    11380.5 secs

     total energy              =   -2510.37827871 Ry
     estimated scf accuracy    <       0.00000002 Ry

     total magnetization       =    -0.00 Bohr mag/cell
     absolute magnetization    =     0.00 Bohr mag/cell

     iteration #129     ecut=    90.00 Ry     beta= 0.20
     Davidson diagonalization with overlap
     ethr =  3.65E-12,  avg # of iterations =  1.0

     total cpu time spent up to now is    11420.4 secs

     total energy              =   -2510.37827871 Ry
     estimated scf accuracy    <       0.00000002 Ry

     total magnetization       =    -0.00 Bohr mag/cell
     absolute magnetization    =     0.00 Bohr mag/cell

     iteration #130     ecut=    90.00 Ry     beta= 0.20
     Davidson diagonalization with overlap
     ethr =  3.65E-12,  avg # of iterations =  1.0

     total cpu time spent up to now is    11460.4 secs

     total energy              =   -2510.37827871 Ry
     estimated scf accuracy    <          4.6E-09 Ry

     total magnetization       =     0.00 Bohr mag/cell
     absolute magnetization    =     0.00 Bohr mag/cell

     iteration #131     ecut=    90.00 Ry     beta= 0.20
     Davidson diagonalization with overlap
     ethr =  3.48E-12,  avg # of iterations =  1.1

     total cpu time spent up to now is    11501.0 secs

     total energy              =   -2510.37827871 Ry
     estimated scf accuracy    <       0.00000005 Ry

     total magnetization       =     0.00 Bohr mag/cell
     absolute magnetization    =     0.00 Bohr mag/cell

     iteration #132     ecut=    90.00 Ry     beta= 0.20
     Davidson diagonalization with overlap
     ethr =  3.48E-12,  avg # of iterations =  1.0

     total cpu time spent up to now is    11540.4 secs

     total energy              =   -2510.37827870 Ry
     estimated scf accuracy    <          2.2E-09 Ry

     total magnetization       =     0.00 Bohr mag/cell
     absolute magnetization    =     0.00 Bohr mag/cell

     iteration #133     ecut=    90.00 Ry     beta= 0.20
     Davidson diagonalization with overlap
     ethr =  1.64E-12,  avg # of iterations =  1.0

     total cpu time spent up to now is    11581.9 secs

     total energy              =   -2510.37827870 Ry
     estimated scf accuracy    <          4.1E-09 Ry

     total magnetization       =     0.00 Bohr mag/cell
     absolute magnetization    =     0.00 Bohr mag/cell

     iteration #134     ecut=    90.00 Ry     beta= 0.20
     Davidson diagonalization with overlap
     ethr =  1.64E-12,  avg # of iterations =  1.0

     total cpu time spent up to now is    11621.9 secs

     total energy              =   -2510.37827870 Ry
     estimated scf accuracy    <          5.7E-09 Ry

     total magnetization       =     0.00 Bohr mag/cell
     absolute magnetization    =     0.00 Bohr mag/cell

     iteration #135     ecut=    90.00 Ry     beta= 0.20
     Davidson diagonalization with overlap
     ethr =  1.64E-12,  avg # of iterations =  1.0

     total cpu time spent up to now is    11661.9 secs

     total energy              =   -2510.37827870 Ry
     estimated scf accuracy    <          4.8E-09 Ry

     total magnetization       =     0.00 Bohr mag/cell
     absolute magnetization    =     0.00 Bohr mag/cell

     iteration #136     ecut=    90.00 Ry     beta= 0.20
     Davidson diagonalization with overlap
     ethr =  1.64E-12,  avg # of iterations =  1.0

     Magnetic moment per site:
     atom:    1    charge:   13.8395    magn:   -0.0001    constr:    0.0000
     atom:    2    charge:   14.9900    magn:    0.0001    constr:    0.0000
     atom:    3    charge:   13.8395    magn:   -0.0000    constr:    0.0000
     atom:    4    charge:   14.9900    magn:    0.0000    constr:    0.0000
     atom:    5    charge:   13.8420    magn:    0.0001    constr:    0.0000
     atom:    6    charge:   14.9870    magn:    0.0000    constr:    0.0000
     atom:    7    charge:   13.8421    magn:    0.0001    constr:    0.0000
     atom:    8    charge:   14.9870    magn:    0.0001    constr:    0.0000

     total cpu time spent up to now is    11702.7 secs

     End of self-consistent calculation

     Number of k-points >= 100: set verbosity='high' to print the bands.

     the Fermi energy is    17.0579 ev

!    total energy              =   -2510.37827869 Ry
     estimated scf accuracy    <          1.0E-09 Ry
     smearing contrib. (-TS)   =      -0.01766664 Ry
     internal energy E=F+TS    =   -2510.36061205 Ry

     The total energy is F=E-TS. E is the sum of the following terms:
     one-electron contribution =   -1162.88136184 Ry
     hartree contribution      =     660.90318007 Ry
     xc contribution           =    -269.49797450 Ry
     ewald contribution        =   -1434.28670802 Ry
     one-center paw contrib.   =    -304.59774775 Ry

     total magnetization       =     0.00 Bohr mag/cell
     absolute magnetization    =     0.00 Bohr mag/cell

     convergence has been achieved in 136 iterations

     Forces acting on atoms (cartesian axes, Ry/au):

     atom    1 type  1   force =    -0.00054604   -0.00752709    0.00108005
     atom    2 type  2   force =    -0.00023400    0.00301585   -0.00061102
     atom    3 type  1   force =    -0.00054622   -0.00752830    0.00107971
     atom    4 type  2   force =    -0.00023396    0.00301620   -0.00061105
     atom    5 type  1   force =     0.00022680    0.00287412   -0.00019904
     atom    6 type  2   force =     0.00055365    0.00163819   -0.00026965
     atom    7 type  1   force =     0.00022598    0.00287271   -0.00019915
     atom    8 type  2   force =     0.00055379    0.00163832   -0.00026985

     Total force =     0.012575     Total SCF correction =     0.000024


     Computing stress (Cartesian axis) and pressure

          total   stress  (Ry/bohr**3)                   (kbar)     P=       -2.69
  -0.00007767   0.00000261  -0.00000034          -11.43        0.38       -0.05
   0.00000261   0.00002844   0.00000205            0.38        4.18        0.30
  -0.00000034   0.00000205  -0.00000561           -0.05        0.30       -0.83

     Energy error            =      2.3E-02
     Gradient error          =      7.5E-03

     number of scf cycles    =   6
     number of bfgs steps    =   5

     energy   old            =   -2510.4016341133 Ry
     energy   new            =   -2510.3782786908 Ry

     CASE: energy  _new > energy  _old


 %%%%%%%%%%%%%%%%%%%%%%%%%%%%%%%%%%%%%%%%%%%%%%%%%%%%%%%%%%%%%%%%%%%%%%%%%%%%%%
     Error in routine bfgs (1):
     dE0s is positive which should never happen
 %%%%%%%%%%%%%%%%%%%%%%%%%%%%%%%%%%%%%%%%%%%%%%%%%%%%%%%%%%%%%%%%%%%%%%%%%%%%%%

     stopping ...
Abort(1) on node 0 (rank 0 in comm 0): application called MPI_Abort(MPI_COMM_WORLD, 1) - process 0
