 # File generated with Atomsk by kevin on 2022-03-20 17:48:00
 
           8  atoms
           2  atom types
 
      0.000000000000       4.553400000000  xlo xhi
      0.000000000000       4.553400000000  ylo yhi
      0.000000000000       4.553400000000  zlo zhi
      0.000000000000       0.022767000000       0.000000000000  xy xz yz
 
Masses
 
            1   58.93319500             # Co
            2   0.00000000              # XX
 
Atoms # atomic
 
         1    1        0.002823397649       0.008334552439      -0.000998308071
         2    3        2.279433675769       2.283430281719       2.282742506778
         3    1        0.014206897649       2.285034552439       2.275701691929
         4    3        2.268050175769       0.006730281719       0.006042506778
         5    1        2.279523397649       2.285034552439      -0.000998308071
         6    3        0.014206897649       0.008334552439       2.275701691929
         7    1        2.290906897649       0.008334552439       2.275701691929
         8    3        0.002823397649       2.285034552439      -0.000998308071
