 # File generated with Atomsk by kevin on 2022-03-20 17:47:58
 
           8  atoms
           2  atom types
 
      0.000000000000       4.576167000000  xlo xhi
      0.000000000000       4.553400000000  ylo yhi
      0.000000000000       4.553400000000  zlo zhi
 
Masses
 
            1   58.93319500             # Co
            2   0.00000000              # XX
 
Atoms # atomic
 
         1    1       -0.006463088101      -0.008404571407      -0.008935135645
         2    3        2.285442756059       2.286454470770       2.267619713504
         3    1       -0.006463088101       2.268295428593       2.267764864355
         4    3        2.285442756059       0.009754470770      -0.009080286496
         5    1        2.281620411899       2.268295428593      -0.008935135645
         6    3       -0.006463088101      -0.008404571407       2.267764864355
         7    1        2.281620411899      -0.008404571407       2.267764864355
         8    3       -0.006463088101       2.268295428593      -0.008935135645
