
     Program PWSCF v.6.7MaX starts on 22Mar2022 at 10:47:30 

     This program is part of the open-source Quantum ESPRESSO suite
     for quantum simulation of materials; please cite
         "P. Giannozzi et al., J. Phys.:Condens. Matter 21 395502 (2009);
         "P. Giannozzi et al., J. Phys.:Condens. Matter 29 465901 (2017);
          URL http://www.quantum-espresso.org", 
     in publications or presentations arising from this work. More details at
     http://www.quantum-espresso.org/quote

     Parallel version (MPI), running on    24 processors

     MPI processes distributed on     1 nodes
     R & G space division:  proc/nbgrp/npool/nimage =      24
     Reading input from /home/kevin/QE_CoCrFeMnNi/CoCrFeMnNi/Opt/binary/Opt-B1-CoFe/Mix/elastic/Chg_2-B1-CoFe.in

     Current dimensions of program PWSCF are:
     Max number of different atomic species (ntypx) = 10
     Max number of k-points (npk) =  40000
     Max angular momentum in pseudopotentials (lmaxx) =  3

     File ./pwscf.update deleted, as requested

     File ./pwscf.bfgs deleted, as requested
     file Fe.pbe-spn-kjpaw_psl.0.2.1.UPF: wavefunction(s)  3D renormalized

     Subspace diagonalization in iterative solution of the eigenvalue problem:
     a serial algorithm will be used

     Found symmetry operation: I + (  0.0000 -0.5000 -0.5000)
     This is a supercell, fractional translations are disabled

     Parallelization info
     --------------------
     sticks:   dense  smooth     PW     G-vecs:    dense   smooth      PW
     Min         266      88     24                15989     3074     459
     Max         267      89     26                15992     3077     465
     Sum        6389    2127    597               383779    73793   11091



     bravais-lattice index     =            0
     lattice parameter (alat)  =       8.6047  a.u.
     unit-cell volume          =     640.2802 (a.u.)^3
     number of atoms/cell      =            8
     number of atomic types    =            2
     number of electrons       =       132.00
     number of Kohn-Sham states=           79
     kinetic-energy cutoff     =      90.0000  Ry
     charge density cutoff     =    1080.0000  Ry
     scf convergence threshold =      1.0E-08
     mixing beta               =       0.2000
     number of iterations used =            8  plain     mixing
     energy convergence thresh.=      1.0E-05
     force convergence thresh. =      1.0E-04
     Exchange-correlation= SLA  PW   PBE  PBE
                           (   1   4   3   4   0   0   0)
     nstep                     =          100


     celldm(1)=   8.604679  celldm(2)=   0.000000  celldm(3)=   0.000000
     celldm(4)=   0.000000  celldm(5)=   0.000000  celldm(6)=   0.000000

     crystal axes: (cart. coord. in units of alat)
               a(1) = (   1.000000   0.000000   0.000000 )  
               a(2) = (   0.000000   1.005000   0.000000 )  
               a(3) = (   0.000000   0.000000   1.000000 )  

     reciprocal axes: (cart. coord. in units 2 pi/alat)
               b(1) = (  1.000000  0.000000  0.000000 )  
               b(2) = (  0.000000  0.995025  0.000000 )  
               b(3) = (  0.000000  0.000000  1.000000 )  


     PseudoPot. # 1 for Fe read from file:
     /opt/QEpot/SSSP_efficiency_pseudos/Fe.pbe-spn-kjpaw_psl.0.2.1.UPF
     MD5 check sum: e86618425769142926afa95317d90200
     Pseudo is Projector augmented-wave + core cor, Zval = 16.0
     Generated using "atomic" code by A. Dal Corso  v.5.0.99 svn rev. 10869
     Shape of augmentation charge: PSQ
     Using radial grid of 1191 points,  6 beta functions with: 
                l(1) =   0
                l(2) =   0
                l(3) =   1
                l(4) =   1
                l(5) =   2
                l(6) =   2
     Q(r) pseudized with 0 coefficients 


     PseudoPot. # 2 for Co read from file:
     /opt/QEpot/SSSP_efficiency_pseudos/Co_pbe_v1.2.uspp.F.UPF
     MD5 check sum: 5f91765df6ddd3222702df6e7b74a16d
     Pseudo is Ultrasoft + core correction, Zval = 17.0
     Generated by new atomic code, or converted to UPF format
     Using radial grid of  863 points,  6 beta functions with: 
                l(1) =   0
                l(2) =   0
                l(3) =   1
                l(4) =   1
                l(5) =   2
                l(6) =   2
     Q(r) pseudized with  8 coefficients,  rinner =    1.200   1.200   1.200
                                                       1.200   1.200

     atomic species   valence    mass     pseudopotential
        Fe            16.00    55.84500     Fe( 1.00)
        Co            17.00    58.93300     Co( 1.00)

     Starting magnetic structure 
     atomic species   magnetization
        Fe           0.000
        Co           0.000

     No symmetry found



   Cartesian axes

     site n.     atom                  positions (alat units)
         1           Fe  tau(   1) = (  -0.0009856   0.5032847  -0.0004137  )
         2           Co  tau(   2) = (   0.4991177   0.0006442   0.4996646  )
         3           Fe  tau(   3) = (  -0.0009852   0.0007848   0.4995864  )
         4           Co  tau(   4) = (   0.4991176   0.5031441  -0.0003355  )
         5           Fe  tau(   5) = (   0.5008883  -0.0007118   0.0003375  )
         6           Co  tau(   6) = (  -0.0007022   0.5031284   0.4996689  )
         7           Fe  tau(   7) = (   0.5008886   0.5017881   0.5003374  )
         8           Co  tau(   8) = (  -0.0007021   0.0006283  -0.0003311  )

     number of k points=   112  Gaussian smearing, width (Ry)=  0.0100

     Number of k-points >= 100: set verbosity='high' to print them.

     Dense  grid:   383779 G-vectors     FFT dimensions: (  96,  96,  96)

     Smooth grid:    73793 G-vectors     FFT dimensions: (  54,  54,  54)

     Estimated max dynamical RAM per process >     175.54 MB

     Estimated total dynamical RAM >       4.11 GB

     Check: negative core charge=   -0.000012
     Generating pointlists ...
     new r_m :   0.2056 (alat units)  1.7691 (a.u.) for type    1
     new r_m :   0.2056 (alat units)  1.7691 (a.u.) for type    2

     Initial potential from superposition of free atoms

     starting charge  127.99822, renormalised to  132.00000
     Starting wfcs are  104 randomized atomic wfcs
     Checking if some PAW data can be deallocated... 

     total cpu time spent up to now is       23.8 secs

     Self-consistent Calculation

     iteration #  1     ecut=    90.00 Ry     beta= 0.20
     Davidson diagonalization with overlap
     ethr =  1.00E-02,  avg # of iterations =  2.0

     total cpu time spent up to now is       77.5 secs

     total energy              =   -2506.03602401 Ry
     estimated scf accuracy    <      23.27766375 Ry

     total magnetization       =    -0.00 Bohr mag/cell
     absolute magnetization    =     0.01 Bohr mag/cell

     iteration #  2     ecut=    90.00 Ry     beta= 0.20
     Davidson diagonalization with overlap
     ethr =  1.00E-02,  avg # of iterations =  3.3

     total cpu time spent up to now is      133.7 secs

     total energy              =   -2508.26328494 Ry
     estimated scf accuracy    <      40.80929626 Ry

     total magnetization       =     0.00 Bohr mag/cell
     absolute magnetization    =     0.01 Bohr mag/cell

     iteration #  3     ecut=    90.00 Ry     beta= 0.20
     Davidson diagonalization with overlap
     ethr =  1.00E-02,  avg # of iterations =  2.0

     total cpu time spent up to now is      183.8 secs

     total energy              =   -2510.26170319 Ry
     estimated scf accuracy    <       0.32185565 Ry

     total magnetization       =    -0.00 Bohr mag/cell
     absolute magnetization    =     0.02 Bohr mag/cell

     iteration #  4     ecut=    90.00 Ry     beta= 0.20
     Davidson diagonalization with overlap
     ethr =  2.44E-04,  avg # of iterations =  4.4

     total cpu time spent up to now is      253.0 secs

     total energy              =   -2510.37717039 Ry
     estimated scf accuracy    <       0.44509439 Ry

     total magnetization       =    -0.00 Bohr mag/cell
     absolute magnetization    =     0.01 Bohr mag/cell

     iteration #  5     ecut=    90.00 Ry     beta= 0.20
     Davidson diagonalization with overlap
     ethr =  2.44E-04,  avg # of iterations =  1.0

     total cpu time spent up to now is      292.7 secs

     total energy              =   -2510.36564276 Ry
     estimated scf accuracy    <       0.17242677 Ry

     total magnetization       =    -0.00 Bohr mag/cell
     absolute magnetization    =     0.01 Bohr mag/cell

     iteration #  6     ecut=    90.00 Ry     beta= 0.20
     Davidson diagonalization with overlap
     ethr =  1.31E-04,  avg # of iterations =  1.0

     total cpu time spent up to now is      332.3 secs

     total energy              =   -2510.37809866 Ry
     estimated scf accuracy    <       0.04635392 Ry

     total magnetization       =    -0.00 Bohr mag/cell
     absolute magnetization    =     0.01 Bohr mag/cell

     iteration #  7     ecut=    90.00 Ry     beta= 0.20
     Davidson diagonalization with overlap
     ethr =  3.51E-05,  avg # of iterations =  2.0

     total cpu time spent up to now is      377.3 secs

     total energy              =   -2510.37793608 Ry
     estimated scf accuracy    <       0.12958040 Ry

     total magnetization       =    -0.00 Bohr mag/cell
     absolute magnetization    =     0.01 Bohr mag/cell

     iteration #  8     ecut=    90.00 Ry     beta= 0.20
     Davidson diagonalization with overlap
     ethr =  3.51E-05,  avg # of iterations =  1.0

     total cpu time spent up to now is      417.0 secs

     total energy              =   -2510.37026726 Ry
     estimated scf accuracy    <       0.07712537 Ry

     total magnetization       =    -0.00 Bohr mag/cell
     absolute magnetization    =     0.01 Bohr mag/cell

     iteration #  9     ecut=    90.00 Ry     beta= 0.20
     Davidson diagonalization with overlap
     ethr =  3.51E-05,  avg # of iterations =  2.0

     total cpu time spent up to now is      462.6 secs

     total energy              =   -2510.37724331 Ry
     estimated scf accuracy    <       0.10605604 Ry

     total magnetization       =    -0.01 Bohr mag/cell
     absolute magnetization    =     0.02 Bohr mag/cell

     iteration # 10     ecut=    90.00 Ry     beta= 0.20
     Davidson diagonalization with overlap
     ethr =  3.51E-05,  avg # of iterations =  1.0

     total cpu time spent up to now is      502.2 secs

     total energy              =   -2510.37537053 Ry
     estimated scf accuracy    <       0.04017976 Ry

     total magnetization       =    -0.01 Bohr mag/cell
     absolute magnetization    =     0.02 Bohr mag/cell

     iteration # 11     ecut=    90.00 Ry     beta= 0.20
     Davidson diagonalization with overlap
     ethr =  3.04E-05,  avg # of iterations =  1.1

     total cpu time spent up to now is      541.8 secs

     total energy              =   -2510.37722485 Ry
     estimated scf accuracy    <       0.00361449 Ry

     total magnetization       =    -0.01 Bohr mag/cell
     absolute magnetization    =     0.03 Bohr mag/cell

     iteration # 12     ecut=    90.00 Ry     beta= 0.20
     Davidson diagonalization with overlap
     c_bands:  1 eigenvalues not converged
     c_bands:  1 eigenvalues not converged
     c_bands:  1 eigenvalues not converged
     ethr =  2.74E-06,  avg # of iterations =  2.0

     total cpu time spent up to now is      585.1 secs

     total energy              =   -2510.37739261 Ry
     estimated scf accuracy    <       0.00208561 Ry

     total magnetization       =    -0.01 Bohr mag/cell
     absolute magnetization    =     0.04 Bohr mag/cell

     iteration # 13     ecut=    90.00 Ry     beta= 0.20
     Davidson diagonalization with overlap
     ethr =  1.58E-06,  avg # of iterations =  1.2

     total cpu time spent up to now is      625.3 secs

     total energy              =   -2510.37743519 Ry
     estimated scf accuracy    <       0.00009195 Ry

     total magnetization       =    -0.01 Bohr mag/cell
     absolute magnetization    =     0.04 Bohr mag/cell

     iteration # 14     ecut=    90.00 Ry     beta= 0.20
     Davidson diagonalization with overlap
     ethr =  6.97E-08,  avg # of iterations =  4.6

     total cpu time spent up to now is      690.8 secs

     total energy              =   -2510.37741915 Ry
     estimated scf accuracy    <       0.00229483 Ry

     total magnetization       =    -0.01 Bohr mag/cell
     absolute magnetization    =     0.04 Bohr mag/cell

     iteration # 15     ecut=    90.00 Ry     beta= 0.20
     Davidson diagonalization with overlap
     ethr =  6.97E-08,  avg # of iterations =  2.1

     total cpu time spent up to now is      736.4 secs

     total energy              =   -2510.37744170 Ry
     estimated scf accuracy    <       0.00195767 Ry

     total magnetization       =    -0.01 Bohr mag/cell
     absolute magnetization    =     0.05 Bohr mag/cell

     iteration # 16     ecut=    90.00 Ry     beta= 0.20
     Davidson diagonalization with overlap
     ethr =  6.97E-08,  avg # of iterations =  1.0

     total cpu time spent up to now is      776.0 secs

     total energy              =   -2510.37747086 Ry
     estimated scf accuracy    <       0.00001010 Ry

     total magnetization       =    -0.01 Bohr mag/cell
     absolute magnetization    =     0.05 Bohr mag/cell

     iteration # 17     ecut=    90.00 Ry     beta= 0.20
     Davidson diagonalization with overlap
     ethr =  7.65E-09,  avg # of iterations =  1.4

     total cpu time spent up to now is      820.1 secs

     total energy              =   -2510.37747116 Ry
     estimated scf accuracy    <       0.00001229 Ry

     total magnetization       =    -0.01 Bohr mag/cell
     absolute magnetization    =     0.05 Bohr mag/cell

     iteration # 18     ecut=    90.00 Ry     beta= 0.20
     Davidson diagonalization with overlap
     ethr =  7.65E-09,  avg # of iterations =  1.0

     total cpu time spent up to now is      859.8 secs

     total energy              =   -2510.37747127 Ry
     estimated scf accuracy    <       0.00001378 Ry

     total magnetization       =    -0.01 Bohr mag/cell
     absolute magnetization    =     0.05 Bohr mag/cell

     iteration # 19     ecut=    90.00 Ry     beta= 0.20
     Davidson diagonalization with overlap
     ethr =  7.65E-09,  avg # of iterations =  1.0

     total cpu time spent up to now is      900.2 secs

     total energy              =   -2510.37747162 Ry
     estimated scf accuracy    <       0.00002634 Ry

     total magnetization       =    -0.01 Bohr mag/cell
     absolute magnetization    =     0.05 Bohr mag/cell

     iteration # 20     ecut=    90.00 Ry     beta= 0.20
     Davidson diagonalization with overlap
     ethr =  7.65E-09,  avg # of iterations =  1.1

     total cpu time spent up to now is      940.3 secs

     total energy              =   -2510.37747249 Ry
     estimated scf accuracy    <       0.00001646 Ry

     total magnetization       =    -0.02 Bohr mag/cell
     absolute magnetization    =     0.06 Bohr mag/cell

     iteration # 21     ecut=    90.00 Ry     beta= 0.20
     Davidson diagonalization with overlap
     ethr =  7.65E-09,  avg # of iterations =  1.0

     total cpu time spent up to now is      980.4 secs

     total energy              =   -2510.37747172 Ry
     estimated scf accuracy    <       0.00001329 Ry

     total magnetization       =    -0.02 Bohr mag/cell
     absolute magnetization    =     0.06 Bohr mag/cell

     iteration # 22     ecut=    90.00 Ry     beta= 0.20
     Davidson diagonalization with overlap
     ethr =  7.65E-09,  avg # of iterations =  1.0

     total cpu time spent up to now is     1020.4 secs

     total energy              =   -2510.37747108 Ry
     estimated scf accuracy    <       0.00001294 Ry

     total magnetization       =    -0.02 Bohr mag/cell
     absolute magnetization    =     0.06 Bohr mag/cell

     iteration # 23     ecut=    90.00 Ry     beta= 0.20
     Davidson diagonalization with overlap
     ethr =  7.65E-09,  avg # of iterations =  1.0

     total cpu time spent up to now is     1060.4 secs

     total energy              =   -2510.37746833 Ry
     estimated scf accuracy    <       0.00005860 Ry

     total magnetization       =    -0.02 Bohr mag/cell
     absolute magnetization    =     0.05 Bohr mag/cell

     iteration # 24     ecut=    90.00 Ry     beta= 0.20
     Davidson diagonalization with overlap
     ethr =  7.65E-09,  avg # of iterations =  1.0

     total cpu time spent up to now is     1100.5 secs

     total energy              =   -2510.37746835 Ry
     estimated scf accuracy    <       0.00003825 Ry

     total magnetization       =    -0.01 Bohr mag/cell
     absolute magnetization    =     0.04 Bohr mag/cell

     iteration # 25     ecut=    90.00 Ry     beta= 0.20
     Davidson diagonalization with overlap
     ethr =  7.65E-09,  avg # of iterations =  1.0

     total cpu time spent up to now is     1140.7 secs

     total energy              =   -2510.37746654 Ry
     estimated scf accuracy    <       0.00011914 Ry

     total magnetization       =    -0.01 Bohr mag/cell
     absolute magnetization    =     0.04 Bohr mag/cell

     iteration # 26     ecut=    90.00 Ry     beta= 0.20
     Davidson diagonalization with overlap
     ethr =  7.65E-09,  avg # of iterations =  1.0

     total cpu time spent up to now is     1180.7 secs

     total energy              =   -2510.37746755 Ry
     estimated scf accuracy    <       0.00000815 Ry

     total magnetization       =    -0.01 Bohr mag/cell
     absolute magnetization    =     0.03 Bohr mag/cell

     iteration # 27     ecut=    90.00 Ry     beta= 0.20
     Davidson diagonalization with overlap
     ethr =  6.18E-09,  avg # of iterations =  1.0

     total cpu time spent up to now is     1221.0 secs

     total energy              =   -2510.37746749 Ry
     estimated scf accuracy    <       0.00000958 Ry

     total magnetization       =    -0.01 Bohr mag/cell
     absolute magnetization    =     0.02 Bohr mag/cell

     iteration # 28     ecut=    90.00 Ry     beta= 0.20
     Davidson diagonalization with overlap
     ethr =  6.18E-09,  avg # of iterations =  1.0

     total cpu time spent up to now is     1261.1 secs

     total energy              =   -2510.37746712 Ry
     estimated scf accuracy    <       0.00001251 Ry

     total magnetization       =    -0.01 Bohr mag/cell
     absolute magnetization    =     0.01 Bohr mag/cell

     iteration # 29     ecut=    90.00 Ry     beta= 0.20
     Davidson diagonalization with overlap
     ethr =  6.18E-09,  avg # of iterations =  1.0

     total cpu time spent up to now is     1301.1 secs

     total energy              =   -2510.37746755 Ry
     estimated scf accuracy    <       0.00000070 Ry

     total magnetization       =    -0.01 Bohr mag/cell
     absolute magnetization    =     0.01 Bohr mag/cell

     iteration # 30     ecut=    90.00 Ry     beta= 0.20
     Davidson diagonalization with overlap
     ethr =  5.33E-10,  avg # of iterations =  2.1

     total cpu time spent up to now is     1349.1 secs

     total energy              =   -2510.37746741 Ry
     estimated scf accuracy    <       0.00001444 Ry

     total magnetization       =    -0.01 Bohr mag/cell
     absolute magnetization    =     0.01 Bohr mag/cell

     iteration # 31     ecut=    90.00 Ry     beta= 0.20
     Davidson diagonalization with overlap
     ethr =  5.33E-10,  avg # of iterations =  1.1

     total cpu time spent up to now is     1391.6 secs

     total energy              =   -2510.37746773 Ry
     estimated scf accuracy    <       0.00000136 Ry

     total magnetization       =    -0.01 Bohr mag/cell
     absolute magnetization    =     0.01 Bohr mag/cell

     iteration # 32     ecut=    90.00 Ry     beta= 0.20
     Davidson diagonalization with overlap
     ethr =  5.33E-10,  avg # of iterations =  1.0

     total cpu time spent up to now is     1431.8 secs

     total energy              =   -2510.37746776 Ry
     estimated scf accuracy    <       0.00000025 Ry

     total magnetization       =    -0.01 Bohr mag/cell
     absolute magnetization    =     0.01 Bohr mag/cell

     iteration # 33     ecut=    90.00 Ry     beta= 0.20
     Davidson diagonalization with overlap
     ethr =  1.87E-10,  avg # of iterations =  1.0

     total cpu time spent up to now is     1471.9 secs

     total energy              =   -2510.37746776 Ry
     estimated scf accuracy    <       0.00000027 Ry

     total magnetization       =    -0.01 Bohr mag/cell
     absolute magnetization    =     0.01 Bohr mag/cell

     iteration # 34     ecut=    90.00 Ry     beta= 0.20
     Davidson diagonalization with overlap
     ethr =  1.87E-10,  avg # of iterations =  1.0

     total cpu time spent up to now is     1511.7 secs

     total energy              =   -2510.37746777 Ry
     estimated scf accuracy    <       0.00000026 Ry

     total magnetization       =    -0.01 Bohr mag/cell
     absolute magnetization    =     0.01 Bohr mag/cell

     iteration # 35     ecut=    90.00 Ry     beta= 0.20
     Davidson diagonalization with overlap
     ethr =  1.87E-10,  avg # of iterations =  1.0

     total cpu time spent up to now is     1551.8 secs

     total energy              =   -2510.37746776 Ry
     estimated scf accuracy    <       0.00000108 Ry

     total magnetization       =    -0.01 Bohr mag/cell
     absolute magnetization    =     0.01 Bohr mag/cell

     iteration # 36     ecut=    90.00 Ry     beta= 0.20
     Davidson diagonalization with overlap
     ethr =  1.87E-10,  avg # of iterations =  1.0

     total cpu time spent up to now is     1592.0 secs

     total energy              =   -2510.37746777 Ry
     estimated scf accuracy    <       0.00000067 Ry

     total magnetization       =    -0.01 Bohr mag/cell
     absolute magnetization    =     0.01 Bohr mag/cell

     iteration # 37     ecut=    90.00 Ry     beta= 0.20
     Davidson diagonalization with overlap
     ethr =  1.87E-10,  avg # of iterations =  1.0

     total cpu time spent up to now is     1632.1 secs

     total energy              =   -2510.37746778 Ry
     estimated scf accuracy    <       0.00000033 Ry

     total magnetization       =    -0.01 Bohr mag/cell
     absolute magnetization    =     0.01 Bohr mag/cell

     iteration # 38     ecut=    90.00 Ry     beta= 0.20
     Davidson diagonalization with overlap
     ethr =  1.87E-10,  avg # of iterations =  1.0

     total cpu time spent up to now is     1672.2 secs

     total energy              =   -2510.37746782 Ry
     estimated scf accuracy    <       0.00000040 Ry

     total magnetization       =    -0.01 Bohr mag/cell
     absolute magnetization    =     0.01 Bohr mag/cell

     iteration # 39     ecut=    90.00 Ry     beta= 0.20
     Davidson diagonalization with overlap
     ethr =  1.87E-10,  avg # of iterations =  1.0

     total cpu time spent up to now is     1712.5 secs

     total energy              =   -2510.37746781 Ry
     estimated scf accuracy    <       0.00000050 Ry

     total magnetization       =    -0.01 Bohr mag/cell
     absolute magnetization    =     0.01 Bohr mag/cell

     iteration # 40     ecut=    90.00 Ry     beta= 0.20
     Davidson diagonalization with overlap
     ethr =  1.87E-10,  avg # of iterations =  1.0

     total cpu time spent up to now is     1752.8 secs

     total energy              =   -2510.37746778 Ry
     estimated scf accuracy    <       0.00000114 Ry

     total magnetization       =    -0.01 Bohr mag/cell
     absolute magnetization    =     0.01 Bohr mag/cell

     iteration # 41     ecut=    90.00 Ry     beta= 0.20
     Davidson diagonalization with overlap
     ethr =  1.87E-10,  avg # of iterations =  1.0

     total cpu time spent up to now is     1792.8 secs

     total energy              =   -2510.37746768 Ry
     estimated scf accuracy    <       0.00000065 Ry

     total magnetization       =    -0.01 Bohr mag/cell
     absolute magnetization    =     0.01 Bohr mag/cell

     iteration # 42     ecut=    90.00 Ry     beta= 0.20
     Davidson diagonalization with overlap
     ethr =  1.87E-10,  avg # of iterations =  1.4

     total cpu time spent up to now is     1835.2 secs

     total energy              =   -2510.37746773 Ry
     estimated scf accuracy    <       0.00000073 Ry

     total magnetization       =    -0.01 Bohr mag/cell
     absolute magnetization    =     0.01 Bohr mag/cell

     iteration # 43     ecut=    90.00 Ry     beta= 0.20
     Davidson diagonalization with overlap
     ethr =  1.87E-10,  avg # of iterations =  1.0

     total cpu time spent up to now is     1875.3 secs

     total energy              =   -2510.37746771 Ry
     estimated scf accuracy    <       0.00000145 Ry

     total magnetization       =    -0.01 Bohr mag/cell
     absolute magnetization    =     0.01 Bohr mag/cell

     iteration # 44     ecut=    90.00 Ry     beta= 0.20
     Davidson diagonalization with overlap
     ethr =  1.87E-10,  avg # of iterations =  1.0

     total cpu time spent up to now is     1915.1 secs

     total energy              =   -2510.37746774 Ry
     estimated scf accuracy    <       0.00000027 Ry

     total magnetization       =    -0.01 Bohr mag/cell
     absolute magnetization    =     0.01 Bohr mag/cell

     iteration # 45     ecut=    90.00 Ry     beta= 0.20
     Davidson diagonalization with overlap
     ethr =  1.87E-10,  avg # of iterations =  1.0

     total cpu time spent up to now is     1955.0 secs

     total energy              =   -2510.37746776 Ry
     estimated scf accuracy    <       0.00000025 Ry

     total magnetization       =    -0.01 Bohr mag/cell
     absolute magnetization    =     0.01 Bohr mag/cell

     iteration # 46     ecut=    90.00 Ry     beta= 0.20
     Davidson diagonalization with overlap
     ethr =  1.87E-10,  avg # of iterations =  1.0

     total cpu time spent up to now is     1997.0 secs

     total energy              =   -2510.37746777 Ry
     estimated scf accuracy    <       0.00000077 Ry

     total magnetization       =    -0.01 Bohr mag/cell
     absolute magnetization    =     0.01 Bohr mag/cell

     iteration # 47     ecut=    90.00 Ry     beta= 0.20
     Davidson diagonalization with overlap
     ethr =  1.87E-10,  avg # of iterations =  1.0

     total cpu time spent up to now is     2036.3 secs

     total energy              =   -2510.37746778 Ry
     estimated scf accuracy    <       0.00000041 Ry

     total magnetization       =    -0.01 Bohr mag/cell
     absolute magnetization    =     0.01 Bohr mag/cell

     iteration # 48     ecut=    90.00 Ry     beta= 0.20
     Davidson diagonalization with overlap
     ethr =  1.87E-10,  avg # of iterations =  1.0

     total cpu time spent up to now is     2075.5 secs

     total energy              =   -2510.37746773 Ry
     estimated scf accuracy    <       0.00000042 Ry

     total magnetization       =    -0.01 Bohr mag/cell
     absolute magnetization    =     0.01 Bohr mag/cell

     iteration # 49     ecut=    90.00 Ry     beta= 0.20
     Davidson diagonalization with overlap
     ethr =  1.87E-10,  avg # of iterations =  1.0

     total cpu time spent up to now is     2114.8 secs

     total energy              =   -2510.37746773 Ry
     estimated scf accuracy    <       0.00000059 Ry

     total magnetization       =    -0.01 Bohr mag/cell
     absolute magnetization    =     0.01 Bohr mag/cell

     iteration # 50     ecut=    90.00 Ry     beta= 0.20
     Davidson diagonalization with overlap
     ethr =  1.87E-10,  avg # of iterations =  1.0

     total cpu time spent up to now is     2154.0 secs

     total energy              =   -2510.37746772 Ry
     estimated scf accuracy    <       0.00000067 Ry

     total magnetization       =    -0.01 Bohr mag/cell
     absolute magnetization    =     0.01 Bohr mag/cell

     iteration # 51     ecut=    90.00 Ry     beta= 0.20
     Davidson diagonalization with overlap
     ethr =  1.87E-10,  avg # of iterations =  1.0

     total cpu time spent up to now is     2193.1 secs

     total energy              =   -2510.37746774 Ry
     estimated scf accuracy    <       0.00000030 Ry

     total magnetization       =    -0.01 Bohr mag/cell
     absolute magnetization    =     0.01 Bohr mag/cell

     iteration # 52     ecut=    90.00 Ry     beta= 0.20
     Davidson diagonalization with overlap
     ethr =  1.87E-10,  avg # of iterations =  1.0

     total cpu time spent up to now is     2232.3 secs

     total energy              =   -2510.37746774 Ry
     estimated scf accuracy    <       0.00000039 Ry

     total magnetization       =    -0.01 Bohr mag/cell
     absolute magnetization    =     0.01 Bohr mag/cell

     iteration # 53     ecut=    90.00 Ry     beta= 0.20
     Davidson diagonalization with overlap
     ethr =  1.87E-10,  avg # of iterations =  1.0

     total cpu time spent up to now is     2271.4 secs

     total energy              =   -2510.37746774 Ry
     estimated scf accuracy    <       0.00000046 Ry

     total magnetization       =    -0.01 Bohr mag/cell
     absolute magnetization    =     0.01 Bohr mag/cell

     iteration # 54     ecut=    90.00 Ry     beta= 0.20
     Davidson diagonalization with overlap
     ethr =  1.87E-10,  avg # of iterations =  1.0

     total cpu time spent up to now is     2310.6 secs

     total energy              =   -2510.37746775 Ry
     estimated scf accuracy    <       0.00000036 Ry

     total magnetization       =    -0.01 Bohr mag/cell
     absolute magnetization    =     0.01 Bohr mag/cell

     iteration # 55     ecut=    90.00 Ry     beta= 0.20
     Davidson diagonalization with overlap
     ethr =  1.87E-10,  avg # of iterations =  1.0

     total cpu time spent up to now is     2349.9 secs

     total energy              =   -2510.37746774 Ry
     estimated scf accuracy    <       0.00000031 Ry

     total magnetization       =    -0.01 Bohr mag/cell
     absolute magnetization    =     0.01 Bohr mag/cell

     iteration # 56     ecut=    90.00 Ry     beta= 0.20
     Davidson diagonalization with overlap
     ethr =  1.87E-10,  avg # of iterations =  1.0

     total cpu time spent up to now is     2389.7 secs

     total energy              =   -2510.37746765 Ry
     estimated scf accuracy    <       0.00000177 Ry

     total magnetization       =    -0.01 Bohr mag/cell
     absolute magnetization    =     0.01 Bohr mag/cell

     iteration # 57     ecut=    90.00 Ry     beta= 0.20
     Davidson diagonalization with overlap
     ethr =  1.87E-10,  avg # of iterations =  1.0

     total cpu time spent up to now is     2429.4 secs

     total energy              =   -2510.37746767 Ry
     estimated scf accuracy    <       0.00000046 Ry

     total magnetization       =    -0.00 Bohr mag/cell
     absolute magnetization    =     0.01 Bohr mag/cell

     iteration # 58     ecut=    90.00 Ry     beta= 0.20
     Davidson diagonalization with overlap
     ethr =  1.87E-10,  avg # of iterations =  1.0

     total cpu time spent up to now is     2469.2 secs

     total energy              =   -2510.37746765 Ry
     estimated scf accuracy    <       0.00000024 Ry

     total magnetization       =    -0.00 Bohr mag/cell
     absolute magnetization    =     0.01 Bohr mag/cell

     iteration # 59     ecut=    90.00 Ry     beta= 0.20
     Davidson diagonalization with overlap
     ethr =  1.78E-10,  avg # of iterations =  1.0

     total cpu time spent up to now is     2509.0 secs

     total energy              =   -2510.37746762 Ry
     estimated scf accuracy    <       0.00000043 Ry

     total magnetization       =    -0.00 Bohr mag/cell
     absolute magnetization    =     0.01 Bohr mag/cell

     iteration # 60     ecut=    90.00 Ry     beta= 0.20
     Davidson diagonalization with overlap
     ethr =  1.78E-10,  avg # of iterations =  1.0

     total cpu time spent up to now is     2548.9 secs

     total energy              =   -2510.37746762 Ry
     estimated scf accuracy    <       0.00000127 Ry

     total magnetization       =    -0.00 Bohr mag/cell
     absolute magnetization    =     0.01 Bohr mag/cell

     iteration # 61     ecut=    90.00 Ry     beta= 0.20
     Davidson diagonalization with overlap
     ethr =  1.78E-10,  avg # of iterations =  1.0

     total cpu time spent up to now is     2590.9 secs

     total energy              =   -2510.37746762 Ry
     estimated scf accuracy    <       0.00000017 Ry

     total magnetization       =    -0.00 Bohr mag/cell
     absolute magnetization    =     0.01 Bohr mag/cell

     iteration # 62     ecut=    90.00 Ry     beta= 0.20
     Davidson diagonalization with overlap
     ethr =  1.27E-10,  avg # of iterations =  1.0

     total cpu time spent up to now is     2630.7 secs

     total energy              =   -2510.37746762 Ry
     estimated scf accuracy    <       0.00000041 Ry

     total magnetization       =    -0.00 Bohr mag/cell
     absolute magnetization    =     0.00 Bohr mag/cell

     iteration # 63     ecut=    90.00 Ry     beta= 0.20
     Davidson diagonalization with overlap
     ethr =  1.27E-10,  avg # of iterations =  1.0

     total cpu time spent up to now is     2670.6 secs

     total energy              =   -2510.37746761 Ry
     estimated scf accuracy    <       0.00000120 Ry

     total magnetization       =     0.00 Bohr mag/cell
     absolute magnetization    =     0.00 Bohr mag/cell

     iteration # 64     ecut=    90.00 Ry     beta= 0.20
     Davidson diagonalization with overlap
     ethr =  1.27E-10,  avg # of iterations =  1.0

     total cpu time spent up to now is     2710.0 secs

     total energy              =   -2510.37746762 Ry
     estimated scf accuracy    <       0.00000047 Ry

     total magnetization       =    -0.00 Bohr mag/cell
     absolute magnetization    =     0.00 Bohr mag/cell

     iteration # 65     ecut=    90.00 Ry     beta= 0.20
     Davidson diagonalization with overlap
     ethr =  1.27E-10,  avg # of iterations =  1.0

     total cpu time spent up to now is     2749.2 secs

     total energy              =   -2510.37746763 Ry
     estimated scf accuracy    <       0.00000009 Ry

     total magnetization       =     0.00 Bohr mag/cell
     absolute magnetization    =     0.00 Bohr mag/cell

     iteration # 66     ecut=    90.00 Ry     beta= 0.20
     Davidson diagonalization with overlap
     ethr =  6.45E-11,  avg # of iterations =  1.0

     total cpu time spent up to now is     2788.4 secs

     total energy              =   -2510.37746764 Ry
     estimated scf accuracy    <       0.00000025 Ry

     total magnetization       =     0.00 Bohr mag/cell
     absolute magnetization    =     0.00 Bohr mag/cell

     iteration # 67     ecut=    90.00 Ry     beta= 0.20
     Davidson diagonalization with overlap
     ethr =  6.45E-11,  avg # of iterations =  1.0

     total cpu time spent up to now is     2827.9 secs

     total energy              =   -2510.37746764 Ry
     estimated scf accuracy    <       0.00000006 Ry

     total magnetization       =     0.00 Bohr mag/cell
     absolute magnetization    =     0.00 Bohr mag/cell

     iteration # 68     ecut=    90.00 Ry     beta= 0.20
     Davidson diagonalization with overlap
     ethr =  4.27E-11,  avg # of iterations =  1.0

     total cpu time spent up to now is     2867.1 secs

     total energy              =   -2510.37746764 Ry
     estimated scf accuracy    <       0.00000004 Ry

     total magnetization       =     0.00 Bohr mag/cell
     absolute magnetization    =     0.01 Bohr mag/cell

     iteration # 69     ecut=    90.00 Ry     beta= 0.20
     Davidson diagonalization with overlap
     ethr =  3.17E-11,  avg # of iterations =  1.0

     total cpu time spent up to now is     2906.3 secs

     total energy              =   -2510.37746765 Ry
     estimated scf accuracy    <       0.00000008 Ry

     total magnetization       =     0.00 Bohr mag/cell
     absolute magnetization    =     0.01 Bohr mag/cell

     iteration # 70     ecut=    90.00 Ry     beta= 0.20
     Davidson diagonalization with overlap
     ethr =  3.17E-11,  avg # of iterations =  1.0

     total cpu time spent up to now is     2945.5 secs

     total energy              =   -2510.37746764 Ry
     estimated scf accuracy    <       0.00000011 Ry

     total magnetization       =     0.00 Bohr mag/cell
     absolute magnetization    =     0.01 Bohr mag/cell

     iteration # 71     ecut=    90.00 Ry     beta= 0.20
     Davidson diagonalization with overlap
     ethr =  3.17E-11,  avg # of iterations =  1.0

     total cpu time spent up to now is     2984.8 secs

     total energy              =   -2510.37746765 Ry
     estimated scf accuracy    <       0.00000004 Ry

     total magnetization       =     0.00 Bohr mag/cell
     absolute magnetization    =     0.01 Bohr mag/cell

     iteration # 72     ecut=    90.00 Ry     beta= 0.20
     Davidson diagonalization with overlap
     ethr =  2.89E-11,  avg # of iterations =  1.0

     total cpu time spent up to now is     3024.0 secs

     total energy              =   -2510.37746765 Ry
     estimated scf accuracy    <       0.00000003 Ry

     total magnetization       =     0.00 Bohr mag/cell
     absolute magnetization    =     0.01 Bohr mag/cell

     iteration # 73     ecut=    90.00 Ry     beta= 0.20
     Davidson diagonalization with overlap
     ethr =  2.52E-11,  avg # of iterations =  1.0

     total cpu time spent up to now is     3063.8 secs

     total energy              =   -2510.37746765 Ry
     estimated scf accuracy    <       0.00000003 Ry

     total magnetization       =     0.00 Bohr mag/cell
     absolute magnetization    =     0.01 Bohr mag/cell

     iteration # 74     ecut=    90.00 Ry     beta= 0.20
     Davidson diagonalization with overlap
     ethr =  2.52E-11,  avg # of iterations =  1.0

     total cpu time spent up to now is     3103.4 secs

     total energy              =   -2510.37746765 Ry
     estimated scf accuracy    <       0.00000004 Ry

     total magnetization       =     0.00 Bohr mag/cell
     absolute magnetization    =     0.01 Bohr mag/cell

     iteration # 75     ecut=    90.00 Ry     beta= 0.20
     Davidson diagonalization with overlap
     ethr =  2.52E-11,  avg # of iterations =  1.0

     total cpu time spent up to now is     3143.2 secs

     total energy              =   -2510.37746765 Ry
     estimated scf accuracy    <       0.00000004 Ry

     total magnetization       =     0.00 Bohr mag/cell
     absolute magnetization    =     0.01 Bohr mag/cell

     iteration # 76     ecut=    90.00 Ry     beta= 0.20
     Davidson diagonalization with overlap
     ethr =  2.52E-11,  avg # of iterations =  1.0

     total cpu time spent up to now is     3185.2 secs

     total energy              =   -2510.37746765 Ry
     estimated scf accuracy    <       0.00000006 Ry

     total magnetization       =     0.00 Bohr mag/cell
     absolute magnetization    =     0.01 Bohr mag/cell

     iteration # 77     ecut=    90.00 Ry     beta= 0.20
     Davidson diagonalization with overlap
     ethr =  2.52E-11,  avg # of iterations =  1.0

     total cpu time spent up to now is     3225.2 secs

     total energy              =   -2510.37746765 Ry
     estimated scf accuracy    <       0.00000003 Ry

     total magnetization       =     0.00 Bohr mag/cell
     absolute magnetization    =     0.01 Bohr mag/cell

     iteration # 78     ecut=    90.00 Ry     beta= 0.20
     Davidson diagonalization with overlap
     ethr =  2.52E-11,  avg # of iterations =  1.0

     total cpu time spent up to now is     3265.3 secs

     total energy              =   -2510.37746764 Ry
     estimated scf accuracy    <       0.00000003 Ry

     total magnetization       =     0.00 Bohr mag/cell
     absolute magnetization    =     0.01 Bohr mag/cell

     iteration # 79     ecut=    90.00 Ry     beta= 0.20
     Davidson diagonalization with overlap
     ethr =  2.52E-11,  avg # of iterations =  1.0

     total cpu time spent up to now is     3305.1 secs

     total energy              =   -2510.37746765 Ry
     estimated scf accuracy    <       0.00000003 Ry

     total magnetization       =     0.00 Bohr mag/cell
     absolute magnetization    =     0.01 Bohr mag/cell

     iteration # 80     ecut=    90.00 Ry     beta= 0.20
     Davidson diagonalization with overlap
     ethr =  2.52E-11,  avg # of iterations =  1.0

     total cpu time spent up to now is     3345.1 secs

     total energy              =   -2510.37746765 Ry
     estimated scf accuracy    <       0.00000002 Ry

     total magnetization       =     0.00 Bohr mag/cell
     absolute magnetization    =     0.01 Bohr mag/cell

     iteration # 81     ecut=    90.00 Ry     beta= 0.20
     Davidson diagonalization with overlap
     ethr =  1.71E-11,  avg # of iterations =  1.0

     total cpu time spent up to now is     3385.1 secs

     total energy              =   -2510.37746765 Ry
     estimated scf accuracy    <       0.00000009 Ry

     total magnetization       =     0.00 Bohr mag/cell
     absolute magnetization    =     0.01 Bohr mag/cell

     iteration # 82     ecut=    90.00 Ry     beta= 0.20
     Davidson diagonalization with overlap
     ethr =  1.71E-11,  avg # of iterations =  1.0

     total cpu time spent up to now is     3424.9 secs

     total energy              =   -2510.37746765 Ry
     estimated scf accuracy    <       0.00000002 Ry

     total magnetization       =     0.00 Bohr mag/cell
     absolute magnetization    =     0.01 Bohr mag/cell

     iteration # 83     ecut=    90.00 Ry     beta= 0.20
     Davidson diagonalization with overlap
     ethr =  1.46E-11,  avg # of iterations =  1.0

     total cpu time spent up to now is     3464.6 secs

     total energy              =   -2510.37746765 Ry
     estimated scf accuracy    <       0.00000003 Ry

     total magnetization       =     0.00 Bohr mag/cell
     absolute magnetization    =     0.01 Bohr mag/cell

     iteration # 84     ecut=    90.00 Ry     beta= 0.20
     Davidson diagonalization with overlap
     ethr =  1.46E-11,  avg # of iterations =  1.0

     total cpu time spent up to now is     3504.5 secs

     total energy              =   -2510.37746765 Ry
     estimated scf accuracy    <       0.00000003 Ry

     total magnetization       =     0.00 Bohr mag/cell
     absolute magnetization    =     0.01 Bohr mag/cell

     iteration # 85     ecut=    90.00 Ry     beta= 0.20
     Davidson diagonalization with overlap
     ethr =  1.46E-11,  avg # of iterations =  1.0

     total cpu time spent up to now is     3544.4 secs

     total energy              =   -2510.37746765 Ry
     estimated scf accuracy    <       0.00000004 Ry

     total magnetization       =     0.00 Bohr mag/cell
     absolute magnetization    =     0.01 Bohr mag/cell

     iteration # 86     ecut=    90.00 Ry     beta= 0.20
     Davidson diagonalization with overlap
     ethr =  1.46E-11,  avg # of iterations =  1.0

     total cpu time spent up to now is     3584.4 secs

     total energy              =   -2510.37746765 Ry
     estimated scf accuracy    <       0.00000010 Ry

     total magnetization       =     0.00 Bohr mag/cell
     absolute magnetization    =     0.01 Bohr mag/cell

     iteration # 87     ecut=    90.00 Ry     beta= 0.20
     Davidson diagonalization with overlap
     ethr =  1.46E-11,  avg # of iterations =  1.0

     total cpu time spent up to now is     3624.2 secs

     total energy              =   -2510.37746765 Ry
     estimated scf accuracy    <       0.00000003 Ry

     total magnetization       =     0.00 Bohr mag/cell
     absolute magnetization    =     0.01 Bohr mag/cell

     iteration # 88     ecut=    90.00 Ry     beta= 0.20
     Davidson diagonalization with overlap
     ethr =  1.46E-11,  avg # of iterations =  1.0

     total cpu time spent up to now is     3663.8 secs

     total energy              =   -2510.37746765 Ry
     estimated scf accuracy    <       0.00000002 Ry

     total magnetization       =     0.00 Bohr mag/cell
     absolute magnetization    =     0.01 Bohr mag/cell

     iteration # 89     ecut=    90.00 Ry     beta= 0.20
     Davidson diagonalization with overlap
     ethr =  1.46E-11,  avg # of iterations =  1.0

     total cpu time spent up to now is     3703.6 secs

     total energy              =   -2510.37746765 Ry
     estimated scf accuracy    <       0.00000003 Ry

     total magnetization       =     0.00 Bohr mag/cell
     absolute magnetization    =     0.01 Bohr mag/cell

     iteration # 90     ecut=    90.00 Ry     beta= 0.20
     Davidson diagonalization with overlap
     ethr =  1.46E-11,  avg # of iterations =  1.0

     total cpu time spent up to now is     3743.3 secs

     total energy              =   -2510.37746765 Ry
     estimated scf accuracy    <       0.00000003 Ry

     total magnetization       =     0.00 Bohr mag/cell
     absolute magnetization    =     0.01 Bohr mag/cell

     iteration # 91     ecut=    90.00 Ry     beta= 0.20
     Davidson diagonalization with overlap
     ethr =  1.46E-11,  avg # of iterations =  1.0

     total cpu time spent up to now is     3784.9 secs

     total energy              =   -2510.37746765 Ry
     estimated scf accuracy    <       0.00000003 Ry

     total magnetization       =     0.00 Bohr mag/cell
     absolute magnetization    =     0.01 Bohr mag/cell

     iteration # 92     ecut=    90.00 Ry     beta= 0.20
     Davidson diagonalization with overlap
     ethr =  1.46E-11,  avg # of iterations =  1.0

     total cpu time spent up to now is     3824.8 secs

     total energy              =   -2510.37746765 Ry
     estimated scf accuracy    <       0.00000003 Ry

     total magnetization       =     0.00 Bohr mag/cell
     absolute magnetization    =     0.01 Bohr mag/cell

     iteration # 93     ecut=    90.00 Ry     beta= 0.20
     Davidson diagonalization with overlap
     ethr =  1.46E-11,  avg # of iterations =  1.0

     total cpu time spent up to now is     3864.5 secs

     total energy              =   -2510.37746764 Ry
     estimated scf accuracy    <       0.00000002 Ry

     total magnetization       =     0.00 Bohr mag/cell
     absolute magnetization    =     0.01 Bohr mag/cell

     iteration # 94     ecut=    90.00 Ry     beta= 0.20
     Davidson diagonalization with overlap
     ethr =  1.46E-11,  avg # of iterations =  1.0

     total cpu time spent up to now is     3904.2 secs

     total energy              =   -2510.37746765 Ry
     estimated scf accuracy    <       0.00000004 Ry

     total magnetization       =     0.00 Bohr mag/cell
     absolute magnetization    =     0.01 Bohr mag/cell

     iteration # 95     ecut=    90.00 Ry     beta= 0.20
     Davidson diagonalization with overlap
     ethr =  1.46E-11,  avg # of iterations =  1.0

     total cpu time spent up to now is     3943.8 secs

     total energy              =   -2510.37746765 Ry
     estimated scf accuracy    <       0.00000003 Ry

     total magnetization       =     0.00 Bohr mag/cell
     absolute magnetization    =     0.01 Bohr mag/cell

     iteration # 96     ecut=    90.00 Ry     beta= 0.20
     Davidson diagonalization with overlap
     ethr =  1.46E-11,  avg # of iterations =  1.0

     total cpu time spent up to now is     3983.7 secs

     total energy              =   -2510.37746764 Ry
     estimated scf accuracy    <       0.00000010 Ry

     total magnetization       =     0.00 Bohr mag/cell
     absolute magnetization    =     0.01 Bohr mag/cell

     iteration # 97     ecut=    90.00 Ry     beta= 0.20
     Davidson diagonalization with overlap
     ethr =  1.46E-11,  avg # of iterations =  1.0

     total cpu time spent up to now is     4023.4 secs

     total energy              =   -2510.37746765 Ry
     estimated scf accuracy    <       0.00000002 Ry

     total magnetization       =     0.00 Bohr mag/cell
     absolute magnetization    =     0.01 Bohr mag/cell

     iteration # 98     ecut=    90.00 Ry     beta= 0.20
     Davidson diagonalization with overlap
     ethr =  1.46E-11,  avg # of iterations =  1.0

     total cpu time spent up to now is     4063.3 secs

     total energy              =   -2510.37746764 Ry
     estimated scf accuracy    <       0.00000003 Ry

     total magnetization       =     0.00 Bohr mag/cell
     absolute magnetization    =     0.01 Bohr mag/cell

     iteration # 99     ecut=    90.00 Ry     beta= 0.20
     Davidson diagonalization with overlap
     ethr =  1.46E-11,  avg # of iterations =  1.0

     total cpu time spent up to now is     4102.9 secs

     total energy              =   -2510.37746764 Ry
     estimated scf accuracy    <       0.00000002 Ry

     total magnetization       =     0.00 Bohr mag/cell
     absolute magnetization    =     0.00 Bohr mag/cell

     iteration #100     ecut=    90.00 Ry     beta= 0.20
     Davidson diagonalization with overlap
     ethr =  1.28E-11,  avg # of iterations =  1.0

     total cpu time spent up to now is     4142.5 secs

     total energy              =   -2510.37746764 Ry
     estimated scf accuracy    <       0.00000002 Ry

     total magnetization       =     0.00 Bohr mag/cell
     absolute magnetization    =     0.00 Bohr mag/cell

     iteration #101     ecut=    90.00 Ry     beta= 0.20
     Davidson diagonalization with overlap
     ethr =  1.28E-11,  avg # of iterations =  1.0

     total cpu time spent up to now is     4182.4 secs

     total energy              =   -2510.37746764 Ry
     estimated scf accuracy    <       0.00000003 Ry

     total magnetization       =     0.00 Bohr mag/cell
     absolute magnetization    =     0.00 Bohr mag/cell

     iteration #102     ecut=    90.00 Ry     beta= 0.20
     Davidson diagonalization with overlap
     ethr =  1.28E-11,  avg # of iterations =  1.0

     total cpu time spent up to now is     4222.1 secs

     total energy              =   -2510.37746764 Ry
     estimated scf accuracy    <       0.00000004 Ry

     total magnetization       =     0.00 Bohr mag/cell
     absolute magnetization    =     0.00 Bohr mag/cell

     iteration #103     ecut=    90.00 Ry     beta= 0.20
     Davidson diagonalization with overlap
     ethr =  1.28E-11,  avg # of iterations =  1.0

     total cpu time spent up to now is     4261.7 secs

     total energy              =   -2510.37746764 Ry
     estimated scf accuracy    <       0.00000004 Ry

     total magnetization       =     0.00 Bohr mag/cell
     absolute magnetization    =     0.01 Bohr mag/cell

     iteration #104     ecut=    90.00 Ry     beta= 0.20
     Davidson diagonalization with overlap
     ethr =  1.28E-11,  avg # of iterations =  1.0

     total cpu time spent up to now is     4301.3 secs

     total energy              =   -2510.37746764 Ry
     estimated scf accuracy    <       0.00000006 Ry

     total magnetization       =     0.00 Bohr mag/cell
     absolute magnetization    =     0.01 Bohr mag/cell

     iteration #105     ecut=    90.00 Ry     beta= 0.20
     Davidson diagonalization with overlap
     ethr =  1.28E-11,  avg # of iterations =  1.0

     total cpu time spent up to now is     4341.0 secs

     total energy              =   -2510.37746764 Ry
     estimated scf accuracy    <       0.00000004 Ry

     total magnetization       =     0.00 Bohr mag/cell
     absolute magnetization    =     0.00 Bohr mag/cell

     iteration #106     ecut=    90.00 Ry     beta= 0.20
     Davidson diagonalization with overlap
     ethr =  1.28E-11,  avg # of iterations =  1.0

     total cpu time spent up to now is     4382.0 secs

     total energy              =   -2510.37746764 Ry
     estimated scf accuracy    <       0.00000011 Ry

     total magnetization       =     0.00 Bohr mag/cell
     absolute magnetization    =     0.00 Bohr mag/cell

     iteration #107     ecut=    90.00 Ry     beta= 0.20
     Davidson diagonalization with overlap
     ethr =  1.28E-11,  avg # of iterations =  1.0

     total cpu time spent up to now is     4422.4 secs

     total energy              =   -2510.37746764 Ry
     estimated scf accuracy    <       0.00000002 Ry

     total magnetization       =     0.00 Bohr mag/cell
     absolute magnetization    =     0.01 Bohr mag/cell

     iteration #108     ecut=    90.00 Ry     beta= 0.20
     Davidson diagonalization with overlap
     ethr =  1.28E-11,  avg # of iterations =  1.0

     total cpu time spent up to now is     4462.1 secs

     total energy              =   -2510.37746765 Ry
     estimated scf accuracy    <       0.00000002 Ry

     total magnetization       =     0.00 Bohr mag/cell
     absolute magnetization    =     0.01 Bohr mag/cell

     iteration #109     ecut=    90.00 Ry     beta= 0.20
     Davidson diagonalization with overlap
     ethr =  1.28E-11,  avg # of iterations =  1.0

     total cpu time spent up to now is     4502.4 secs

     total energy              =   -2510.37746764 Ry
     estimated scf accuracy    <       0.00000002 Ry

     total magnetization       =     0.00 Bohr mag/cell
     absolute magnetization    =     0.01 Bohr mag/cell

     iteration #110     ecut=    90.00 Ry     beta= 0.20
     Davidson diagonalization with overlap
     ethr =  1.28E-11,  avg # of iterations =  1.0

     total cpu time spent up to now is     4541.4 secs

     total energy              =   -2510.37746764 Ry
     estimated scf accuracy    <       0.00000002 Ry

     total magnetization       =     0.00 Bohr mag/cell
     absolute magnetization    =     0.01 Bohr mag/cell

     iteration #111     ecut=    90.00 Ry     beta= 0.20
     Davidson diagonalization with overlap
     ethr =  1.28E-11,  avg # of iterations =  1.0

     total cpu time spent up to now is     4580.6 secs

     total energy              =   -2510.37746764 Ry
     estimated scf accuracy    <       0.00000002 Ry

     total magnetization       =     0.00 Bohr mag/cell
     absolute magnetization    =     0.01 Bohr mag/cell

     iteration #112     ecut=    90.00 Ry     beta= 0.20
     Davidson diagonalization with overlap
     ethr =  1.28E-11,  avg # of iterations =  1.0

     total cpu time spent up to now is     4619.9 secs

     total energy              =   -2510.37746764 Ry
     estimated scf accuracy    <       0.00000002 Ry

     total magnetization       =     0.00 Bohr mag/cell
     absolute magnetization    =     0.01 Bohr mag/cell

     iteration #113     ecut=    90.00 Ry     beta= 0.20
     Davidson diagonalization with overlap
     ethr =  1.28E-11,  avg # of iterations =  1.0

     total cpu time spent up to now is     4659.2 secs

     total energy              =   -2510.37746764 Ry
     estimated scf accuracy    <       0.00000003 Ry

     total magnetization       =     0.00 Bohr mag/cell
     absolute magnetization    =     0.01 Bohr mag/cell

     iteration #114     ecut=    90.00 Ry     beta= 0.20
     Davidson diagonalization with overlap
     ethr =  1.28E-11,  avg # of iterations =  1.0

     total cpu time spent up to now is     4698.4 secs

     total energy              =   -2510.37746764 Ry
     estimated scf accuracy    <       0.00000003 Ry

     total magnetization       =     0.00 Bohr mag/cell
     absolute magnetization    =     0.01 Bohr mag/cell

     iteration #115     ecut=    90.00 Ry     beta= 0.20
     Davidson diagonalization with overlap
     ethr =  1.28E-11,  avg # of iterations =  1.0

     total cpu time spent up to now is     4738.0 secs

     total energy              =   -2510.37746764 Ry
     estimated scf accuracy    <       0.00000003 Ry

     total magnetization       =     0.00 Bohr mag/cell
     absolute magnetization    =     0.01 Bohr mag/cell

     iteration #116     ecut=    90.00 Ry     beta= 0.20
     Davidson diagonalization with overlap
     ethr =  1.28E-11,  avg # of iterations =  1.0

     total cpu time spent up to now is     4777.1 secs

     total energy              =   -2510.37746764 Ry
     estimated scf accuracy    <       0.00000011 Ry

     total magnetization       =     0.00 Bohr mag/cell
     absolute magnetization    =     0.01 Bohr mag/cell

     iteration #117     ecut=    90.00 Ry     beta= 0.20
     Davidson diagonalization with overlap
     ethr =  1.28E-11,  avg # of iterations =  1.0

     total cpu time spent up to now is     4816.3 secs

     total energy              =   -2510.37746765 Ry
     estimated scf accuracy    <       0.00000002 Ry

     total magnetization       =     0.00 Bohr mag/cell
     absolute magnetization    =     0.01 Bohr mag/cell

     iteration #118     ecut=    90.00 Ry     beta= 0.20
     Davidson diagonalization with overlap
     ethr =  1.28E-11,  avg # of iterations =  1.0

     total cpu time spent up to now is     4855.6 secs

     total energy              =   -2510.37746764 Ry
     estimated scf accuracy    <       0.00000002 Ry

     total magnetization       =     0.00 Bohr mag/cell
     absolute magnetization    =     0.01 Bohr mag/cell

     iteration #119     ecut=    90.00 Ry     beta= 0.20
     Davidson diagonalization with overlap
     ethr =  1.28E-11,  avg # of iterations =  1.0

     total cpu time spent up to now is     4894.7 secs

     total energy              =   -2510.37746764 Ry
     estimated scf accuracy    <       0.00000003 Ry

     total magnetization       =     0.00 Bohr mag/cell
     absolute magnetization    =     0.01 Bohr mag/cell

     iteration #120     ecut=    90.00 Ry     beta= 0.20
     Davidson diagonalization with overlap
     ethr =  1.28E-11,  avg # of iterations =  1.0

     total cpu time spent up to now is     4933.9 secs

     total energy              =   -2510.37746765 Ry
     estimated scf accuracy    <       0.00000002 Ry

     total magnetization       =     0.00 Bohr mag/cell
     absolute magnetization    =     0.01 Bohr mag/cell

     iteration #121     ecut=    90.00 Ry     beta= 0.20
     Davidson diagonalization with overlap
     ethr =  1.28E-11,  avg # of iterations =  1.0

     total cpu time spent up to now is     4973.1 secs

     total energy              =   -2510.37746765 Ry
     estimated scf accuracy    <       0.00000003 Ry

     total magnetization       =     0.00 Bohr mag/cell
     absolute magnetization    =     0.01 Bohr mag/cell

     iteration #122     ecut=    90.00 Ry     beta= 0.20
     Davidson diagonalization with overlap
     ethr =  1.28E-11,  avg # of iterations =  1.0

     total cpu time spent up to now is     5014.5 secs

     total energy              =   -2510.37746764 Ry
     estimated scf accuracy    <       0.00000003 Ry

     total magnetization       =     0.00 Bohr mag/cell
     absolute magnetization    =     0.01 Bohr mag/cell

     iteration #123     ecut=    90.00 Ry     beta= 0.20
     Davidson diagonalization with overlap
     ethr =  1.28E-11,  avg # of iterations =  1.0

     total cpu time spent up to now is     5054.6 secs

     total energy              =   -2510.37746764 Ry
     estimated scf accuracy    <       0.00000012 Ry

     total magnetization       =     0.00 Bohr mag/cell
     absolute magnetization    =     0.00 Bohr mag/cell

     iteration #124     ecut=    90.00 Ry     beta= 0.20
     Davidson diagonalization with overlap
     ethr =  1.28E-11,  avg # of iterations =  1.2

     total cpu time spent up to now is     5095.4 secs

     total energy              =   -2510.37746763 Ry
     estimated scf accuracy    <       0.00000032 Ry

     total magnetization       =     0.00 Bohr mag/cell
     absolute magnetization    =     0.00 Bohr mag/cell

     iteration #125     ecut=    90.00 Ry     beta= 0.20
     Davidson diagonalization with overlap
     ethr =  1.28E-11,  avg # of iterations =  1.3

     total cpu time spent up to now is     5136.7 secs

     total energy              =   -2510.37746763 Ry
     estimated scf accuracy    <       0.00000016 Ry

     total magnetization       =     0.00 Bohr mag/cell
     absolute magnetization    =     0.00 Bohr mag/cell

     iteration #126     ecut=    90.00 Ry     beta= 0.20
     Davidson diagonalization with overlap
     ethr =  1.28E-11,  avg # of iterations =  1.1

     total cpu time spent up to now is     5176.7 secs

     total energy              =   -2510.37746763 Ry
     estimated scf accuracy    <       0.00000010 Ry

     total magnetization       =     0.00 Bohr mag/cell
     absolute magnetization    =     0.00 Bohr mag/cell

     iteration #127     ecut=    90.00 Ry     beta= 0.20
     Davidson diagonalization with overlap
     ethr =  1.28E-11,  avg # of iterations =  2.0

     total cpu time spent up to now is     5224.6 secs

     total energy              =   -2510.37746762 Ry
     estimated scf accuracy    <       0.00000030 Ry

     total magnetization       =     0.00 Bohr mag/cell
     absolute magnetization    =     0.00 Bohr mag/cell

     iteration #128     ecut=    90.00 Ry     beta= 0.20
     Davidson diagonalization with overlap
     ethr =  1.28E-11,  avg # of iterations =  1.9

     total cpu time spent up to now is     5269.5 secs

     total energy              =   -2510.37746764 Ry
     estimated scf accuracy    <       0.00000003 Ry

     total magnetization       =    -0.00 Bohr mag/cell
     absolute magnetization    =     0.00 Bohr mag/cell

     iteration #129     ecut=    90.00 Ry     beta= 0.20
     Davidson diagonalization with overlap
     ethr =  1.28E-11,  avg # of iterations =  1.0

     total cpu time spent up to now is     5309.4 secs

     total energy              =   -2510.37746764 Ry
     estimated scf accuracy    <       0.00000004 Ry

     total magnetization       =     0.00 Bohr mag/cell
     absolute magnetization    =     0.00 Bohr mag/cell

     iteration #130     ecut=    90.00 Ry     beta= 0.20
     Davidson diagonalization with overlap
     ethr =  1.28E-11,  avg # of iterations =  1.0

     total cpu time spent up to now is     5349.3 secs

     total energy              =   -2510.37746764 Ry
     estimated scf accuracy    <       0.00000001 Ry

     total magnetization       =     0.00 Bohr mag/cell
     absolute magnetization    =     0.00 Bohr mag/cell

     iteration #131     ecut=    90.00 Ry     beta= 0.20
     Davidson diagonalization with overlap
     ethr =  1.04E-11,  avg # of iterations =  1.0

     total cpu time spent up to now is     5389.0 secs

     total energy              =   -2510.37746764 Ry
     estimated scf accuracy    <       0.00000002 Ry

     total magnetization       =     0.00 Bohr mag/cell
     absolute magnetization    =     0.00 Bohr mag/cell

     iteration #132     ecut=    90.00 Ry     beta= 0.20
     Davidson diagonalization with overlap
     ethr =  1.04E-11,  avg # of iterations =  1.0

     total cpu time spent up to now is     5428.9 secs

     total energy              =   -2510.37746764 Ry
     estimated scf accuracy    <       0.00000002 Ry

     total magnetization       =     0.00 Bohr mag/cell
     absolute magnetization    =     0.00 Bohr mag/cell

     iteration #133     ecut=    90.00 Ry     beta= 0.20
     Davidson diagonalization with overlap
     ethr =  1.04E-11,  avg # of iterations =  1.0

     total cpu time spent up to now is     5468.8 secs

     total energy              =   -2510.37746764 Ry
     estimated scf accuracy    <       0.00000002 Ry

     total magnetization       =     0.00 Bohr mag/cell
     absolute magnetization    =     0.00 Bohr mag/cell

     iteration #134     ecut=    90.00 Ry     beta= 0.20
     Davidson diagonalization with overlap
     ethr =  1.04E-11,  avg # of iterations =  1.0

     total cpu time spent up to now is     5508.3 secs

     total energy              =   -2510.37746764 Ry
     estimated scf accuracy    <       0.00000002 Ry

     total magnetization       =     0.00 Bohr mag/cell
     absolute magnetization    =     0.00 Bohr mag/cell

     iteration #135     ecut=    90.00 Ry     beta= 0.20
     Davidson diagonalization with overlap
     ethr =  1.04E-11,  avg # of iterations =  1.0

     total cpu time spent up to now is     5547.3 secs

     total energy              =   -2510.37746764 Ry
     estimated scf accuracy    <       0.00000002 Ry

     total magnetization       =     0.00 Bohr mag/cell
     absolute magnetization    =     0.00 Bohr mag/cell

     iteration #136     ecut=    90.00 Ry     beta= 0.20
     Davidson diagonalization with overlap
     ethr =  1.04E-11,  avg # of iterations =  1.0

     total cpu time spent up to now is     5588.7 secs

     total energy              =   -2510.37746763 Ry
     estimated scf accuracy    <       0.00000002 Ry

     total magnetization       =     0.00 Bohr mag/cell
     absolute magnetization    =     0.00 Bohr mag/cell

     iteration #137     ecut=    90.00 Ry     beta= 0.20
     Davidson diagonalization with overlap
     ethr =  1.04E-11,  avg # of iterations =  1.0

     total cpu time spent up to now is     5629.0 secs

     total energy              =   -2510.37746763 Ry
     estimated scf accuracy    <       0.00000009 Ry

     total magnetization       =    -0.00 Bohr mag/cell
     absolute magnetization    =     0.00 Bohr mag/cell

     iteration #138     ecut=    90.00 Ry     beta= 0.20
     Davidson diagonalization with overlap
     ethr =  1.04E-11,  avg # of iterations =  1.1

     total cpu time spent up to now is     5669.6 secs

     total energy              =   -2510.37746762 Ry
     estimated scf accuracy    <       0.00000003 Ry

     total magnetization       =     0.00 Bohr mag/cell
     absolute magnetization    =     0.00 Bohr mag/cell

     iteration #139     ecut=    90.00 Ry     beta= 0.20
     Davidson diagonalization with overlap
     ethr =  1.04E-11,  avg # of iterations =  1.5

     total cpu time spent up to now is     5712.3 secs

     total energy              =   -2510.37746763 Ry
     estimated scf accuracy    <       0.00000010 Ry

     total magnetization       =    -0.00 Bohr mag/cell
     absolute magnetization    =     0.00 Bohr mag/cell

     iteration #140     ecut=    90.00 Ry     beta= 0.20
     Davidson diagonalization with overlap
     ethr =  1.04E-11,  avg # of iterations =  1.1

     total cpu time spent up to now is     5753.1 secs

     total energy              =   -2510.37746763 Ry
     estimated scf accuracy    <       0.00000001 Ry

     total magnetization       =     0.00 Bohr mag/cell
     absolute magnetization    =     0.00 Bohr mag/cell

     iteration #141     ecut=    90.00 Ry     beta= 0.20
     Davidson diagonalization with overlap
     ethr =  8.77E-12,  avg # of iterations =  1.0

     total cpu time spent up to now is     5792.9 secs

     total energy              =   -2510.37746763 Ry
     estimated scf accuracy    <       0.00000001 Ry

     total magnetization       =     0.00 Bohr mag/cell
     absolute magnetization    =     0.00 Bohr mag/cell

     iteration #142     ecut=    90.00 Ry     beta= 0.20
     Davidson diagonalization with overlap
     ethr =  8.77E-12,  avg # of iterations =  1.0

     Magnetic moment per site:
     atom:    1    charge:   14.0244    magn:   -0.0002    constr:    0.0000
     atom:    2    charge:   15.1750    magn:    0.0000    constr:    0.0000
     atom:    3    charge:   14.0244    magn:   -0.0001    constr:    0.0000
     atom:    4    charge:   15.1750    magn:    0.0000    constr:    0.0000
     atom:    5    charge:   14.0245    magn:    0.0001    constr:    0.0000
     atom:    6    charge:   15.1750    magn:    0.0004    constr:    0.0000
     atom:    7    charge:   14.0245    magn:    0.0003    constr:    0.0000
     atom:    8    charge:   15.1750    magn:   -0.0002    constr:    0.0000

     total cpu time spent up to now is     5832.7 secs

     End of self-consistent calculation

     Number of k-points >= 100: set verbosity='high' to print the bands.

     the Fermi energy is    17.0573 ev

!    total energy              =   -2510.37746763 Ry
     estimated scf accuracy    <          7.2E-09 Ry
     smearing contrib. (-TS)   =      -0.01872589 Ry
     internal energy E=F+TS    =   -2510.35874174 Ry

     The total energy is F=E-TS. E is the sum of the following terms:
     one-electron contribution =   -1162.01359707 Ry
     hartree contribution      =     660.49490743 Ry
     xc contribution           =    -269.49533153 Ry
     ewald contribution        =   -1434.74725288 Ry
     one-center paw contrib.   =    -304.59746769 Ry

     total magnetization       =     0.00 Bohr mag/cell
     absolute magnetization    =     0.00 Bohr mag/cell

     convergence has been achieved in 142 iterations

     Forces acting on atoms (cartesian axes, Ry/au):

     atom    1 type  1   force =    -0.00075511    0.00060341   -0.00030855
     atom    2 type  2   force =    -0.00033929   -0.00004884    0.00004726
     atom    3 type  1   force =    -0.00075409    0.00060271   -0.00030876
     atom    4 type  2   force =    -0.00033946   -0.00004929    0.00004729
     atom    5 type  1   force =     0.00048690   -0.00044174    0.00020156
     atom    6 type  2   force =     0.00060721   -0.00011216    0.00006022
     atom    7 type  1   force =     0.00048683   -0.00044180    0.00020081
     atom    8 type  2   force =     0.00060701   -0.00011229    0.00006017

     Total force =     0.002003     Total SCF correction =     0.000005


     Computing stress (Cartesian axis) and pressure

          total   stress  (Ry/bohr**3)                   (kbar)     P=       -4.94
  -0.00001228  -0.00000027   0.00000014           -1.81       -0.04        0.02
  -0.00000027  -0.00007615   0.00000005           -0.04      -11.20        0.01
   0.00000014   0.00000005  -0.00001241            0.02        0.01       -1.82


     BFGS Geometry Optimization
     Energy error            =      0.0E+00
     Gradient error          =      7.6E-04

     number of scf cycles    =   1
     number of bfgs steps    =   0

     energy   new            =   -2510.3774676329 Ry

     new trust radius        =       0.0010146403 bohr
     new conv_thr            =       0.0000000100 Ry


ATOMIC_POSITIONS (angstrom)
Fe           -0.0048872641        2.2919759287       -0.0020470450
Co            2.2725028015        0.0029075626        2.2751976541
Fe           -0.0048852634        0.0038922386        2.2746533210
Co            2.2725024010        2.2909904809       -0.0015026324
Fe            2.2810023576       -0.0034747177        0.0016432243
Co           -0.0028760613        2.2908855709        2.2752240994
Fe            2.2810035975        2.2846082379        2.2783424193
Co           -0.0028755496        0.0028016572       -0.0014759277



     Writing output data file ./pwscf.save/
     NEW-OLD atomic charge density approx. for the potential

     Check: negative core charge=   -0.000012
     Generating pointlists ...

     total cpu time spent up to now is     5860.4 secs

     Self-consistent Calculation

     iteration #  1     ecut=    90.00 Ry     beta= 0.20
     Davidson diagonalization with overlap
     ethr =  1.00E-06,  avg # of iterations =  2.0

     Threshold (ethr) on eigenvalues was too large:
     Diagonalizing with lowered threshold

     Davidson diagonalization with overlap
     ethr =  6.14E-09,  avg # of iterations =  5.2

     total cpu time spent up to now is     5997.6 secs

     total energy              =   -2510.37746955 Ry
     estimated scf accuracy    <       0.00000809 Ry

     total magnetization       =     0.00 Bohr mag/cell
     absolute magnetization    =     0.00 Bohr mag/cell

     iteration #  2     ecut=    90.00 Ry     beta= 0.20
     Davidson diagonalization with overlap
     ethr =  6.13E-09,  avg # of iterations =  2.2

     total cpu time spent up to now is     6048.0 secs

     total energy              =   -2510.37745719 Ry
     estimated scf accuracy    <       0.00097783 Ry

     total magnetization       =     0.00 Bohr mag/cell
     absolute magnetization    =     0.00 Bohr mag/cell

     iteration #  3     ecut=    90.00 Ry     beta= 0.20
     Davidson diagonalization with overlap
     ethr =  6.13E-09,  avg # of iterations =  2.1

     total cpu time spent up to now is     6095.8 secs

     total energy              =   -2510.37747157 Ry
     estimated scf accuracy    <       0.00002893 Ry

     total magnetization       =     0.00 Bohr mag/cell
     absolute magnetization    =     0.00 Bohr mag/cell

     iteration #  4     ecut=    90.00 Ry     beta= 0.20
     Davidson diagonalization with overlap
     ethr =  6.13E-09,  avg # of iterations =  1.0

     total cpu time spent up to now is     6135.2 secs

     total energy              =   -2510.37747200 Ry
     estimated scf accuracy    <       0.00000013 Ry

     total magnetization       =     0.00 Bohr mag/cell
     absolute magnetization    =     0.00 Bohr mag/cell

     iteration #  5     ecut=    90.00 Ry     beta= 0.20
     Davidson diagonalization with overlap
     ethr =  9.93E-11,  avg # of iterations =  3.5

     total cpu time spent up to now is     6193.1 secs

     total energy              =   -2510.37747185 Ry
     estimated scf accuracy    <       0.00000728 Ry

     total magnetization       =     0.00 Bohr mag/cell
     absolute magnetization    =     0.01 Bohr mag/cell

     iteration #  6     ecut=    90.00 Ry     beta= 0.20
     Davidson diagonalization with overlap
     ethr =  9.93E-11,  avg # of iterations =  1.9

     total cpu time spent up to now is     6238.3 secs

     total energy              =   -2510.37747195 Ry
     estimated scf accuracy    <       0.00000007 Ry

     total magnetization       =     0.00 Bohr mag/cell
     absolute magnetization    =     0.01 Bohr mag/cell

     iteration #  7     ecut=    90.00 Ry     beta= 0.20
     Davidson diagonalization with overlap
     ethr =  5.67E-11,  avg # of iterations =  1.0

     total cpu time spent up to now is     6278.1 secs

     total energy              =   -2510.37747195 Ry
     estimated scf accuracy    <       0.00000005 Ry

     total magnetization       =     0.00 Bohr mag/cell
     absolute magnetization    =     0.01 Bohr mag/cell

     iteration #  8     ecut=    90.00 Ry     beta= 0.20
     Davidson diagonalization with overlap
     ethr =  3.84E-11,  avg # of iterations =  1.0

     total cpu time spent up to now is     6317.9 secs

     total energy              =   -2510.37747195 Ry
     estimated scf accuracy    <       0.00000005 Ry

     total magnetization       =     0.00 Bohr mag/cell
     absolute magnetization    =     0.01 Bohr mag/cell

     iteration #  9     ecut=    90.00 Ry     beta= 0.20
     Davidson diagonalization with overlap
     ethr =  3.58E-11,  avg # of iterations =  1.0

     total cpu time spent up to now is     6357.9 secs

     total energy              =   -2510.37747194 Ry
     estimated scf accuracy    <       0.00000005 Ry

     total magnetization       =     0.00 Bohr mag/cell
     absolute magnetization    =     0.01 Bohr mag/cell

     iteration # 10     ecut=    90.00 Ry     beta= 0.20
     Davidson diagonalization with overlap
     ethr =  3.58E-11,  avg # of iterations =  1.0

     total cpu time spent up to now is     6398.1 secs

     total energy              =   -2510.37747194 Ry
     estimated scf accuracy    <       0.00000033 Ry

     total magnetization       =     0.00 Bohr mag/cell
     absolute magnetization    =     0.01 Bohr mag/cell

     iteration # 11     ecut=    90.00 Ry     beta= 0.20
     Davidson diagonalization with overlap
     ethr =  3.58E-11,  avg # of iterations =  1.0

     total cpu time spent up to now is     6438.1 secs

     total energy              =   -2510.37747192 Ry
     estimated scf accuracy    <       0.00000003 Ry

     total magnetization       =     0.00 Bohr mag/cell
     absolute magnetization    =     0.00 Bohr mag/cell

     iteration # 12     ecut=    90.00 Ry     beta= 0.20
     Davidson diagonalization with overlap
     ethr =  2.03E-11,  avg # of iterations =  1.0

     total cpu time spent up to now is     6478.3 secs

     total energy              =   -2510.37747192 Ry
     estimated scf accuracy    <       0.00000004 Ry

     total magnetization       =     0.00 Bohr mag/cell
     absolute magnetization    =     0.00 Bohr mag/cell

     iteration # 13     ecut=    90.00 Ry     beta= 0.20
     Davidson diagonalization with overlap
     ethr =  2.03E-11,  avg # of iterations =  1.0

     total cpu time spent up to now is     6518.3 secs

     total energy              =   -2510.37747188 Ry
     estimated scf accuracy    <       0.00000015 Ry

     total magnetization       =     0.00 Bohr mag/cell
     absolute magnetization    =     0.00 Bohr mag/cell

     iteration # 14     ecut=    90.00 Ry     beta= 0.20
     Davidson diagonalization with overlap
     ethr =  2.03E-11,  avg # of iterations =  1.0

     total cpu time spent up to now is     6558.4 secs

     total energy              =   -2510.37747186 Ry
     estimated scf accuracy    <       0.00000012 Ry

     total magnetization       =     0.00 Bohr mag/cell
     absolute magnetization    =     0.00 Bohr mag/cell

     iteration # 15     ecut=    90.00 Ry     beta= 0.20
     Davidson diagonalization with overlap
     ethr =  2.03E-11,  avg # of iterations =  1.0

     total cpu time spent up to now is     6598.4 secs

     total energy              =   -2510.37747186 Ry
     estimated scf accuracy    <       0.00000002 Ry

     total magnetization       =     0.00 Bohr mag/cell
     absolute magnetization    =     0.00 Bohr mag/cell

     iteration # 16     ecut=    90.00 Ry     beta= 0.20
     Davidson diagonalization with overlap
     ethr =  1.19E-11,  avg # of iterations =  1.0

     total cpu time spent up to now is     6638.6 secs

     total energy              =   -2510.37747186 Ry
     estimated scf accuracy    <       0.00000020 Ry

     total magnetization       =     0.00 Bohr mag/cell
     absolute magnetization    =     0.00 Bohr mag/cell

     iteration # 17     ecut=    90.00 Ry     beta= 0.20
     Davidson diagonalization with overlap
     ethr =  1.19E-11,  avg # of iterations =  1.0

     Magnetic moment per site:
     atom:    1    charge:   14.0244    magn:    0.0001    constr:    0.0000
     atom:    2    charge:   15.1750    magn:    0.0000    constr:    0.0000
     atom:    3    charge:   14.0244    magn:    0.0001    constr:    0.0000
     atom:    4    charge:   15.1750    magn:    0.0001    constr:    0.0000
     atom:    5    charge:   14.0244    magn:    0.0002    constr:    0.0000
     atom:    6    charge:   15.1750    magn:    0.0007    constr:    0.0000
     atom:    7    charge:   14.0245    magn:   -0.0000    constr:    0.0000
     atom:    8    charge:   15.1751    magn:   -0.0005    constr:    0.0000

     total cpu time spent up to now is     6678.5 secs

     End of self-consistent calculation

     Number of k-points >= 100: set verbosity='high' to print the bands.

     the Fermi energy is    17.0573 ev

!    total energy              =   -2510.37747185 Ry
     estimated scf accuracy    <          9.9E-09 Ry
     smearing contrib. (-TS)   =      -0.01872472 Ry
     internal energy E=F+TS    =   -2510.35874713 Ry

     The total energy is F=E-TS. E is the sum of the following terms:
     one-electron contribution =   -1162.01432004 Ry
     hartree contribution      =     660.49539719 Ry
     xc contribution           =    -269.49534412 Ry
     ewald contribution        =   -1434.74701337 Ry
     one-center paw contrib.   =    -304.59746680 Ry

     total magnetization       =     0.00 Bohr mag/cell
     absolute magnetization    =     0.00 Bohr mag/cell

     convergence has been achieved in  17 iterations

     Forces acting on atoms (cartesian axes, Ry/au):

     atom    1 type  1   force =    -0.00085283    0.00066771   -0.00034065
     atom    2 type  2   force =    -0.00040301   -0.00003432    0.00004097
     atom    3 type  1   force =    -0.00085020    0.00067612   -0.00034370
     atom    4 type  2   force =    -0.00040309   -0.00003393    0.00004143
     atom    5 type  1   force =     0.00058468   -0.00050939    0.00023474
     atom    6 type  2   force =     0.00066970   -0.00012657    0.00006488
     atom    7 type  1   force =     0.00058296   -0.00051288    0.00023698
     atom    8 type  2   force =     0.00067180   -0.00012674    0.00006536

     Total force =     0.002275     Total SCF correction =     0.000127


     Computing stress (Cartesian axis) and pressure

          total   stress  (Ry/bohr**3)                   (kbar)     P=       -4.62
  -0.00001006  -0.00000032   0.00000017           -1.48       -0.05        0.02
  -0.00000032  -0.00007394   0.00000005           -0.05      -10.88        0.01
   0.00000017   0.00000005  -0.00001019            0.02        0.01       -1.50

     Energy error            =      2.0E-04
     Gradient error          =      8.5E-04

     number of scf cycles    =   4
     number of bfgs steps    =   3

     energy   old            =   -2510.3776750222 Ry
     energy   new            =   -2510.3774718516 Ry

     CASE: energy  _new > energy  _old


 %%%%%%%%%%%%%%%%%%%%%%%%%%%%%%%%%%%%%%%%%%%%%%%%%%%%%%%%%%%%%%%%%%%%%%%%%%%%%%
     Error in routine bfgs (1):
     dE0s is positive which should never happen
 %%%%%%%%%%%%%%%%%%%%%%%%%%%%%%%%%%%%%%%%%%%%%%%%%%%%%%%%%%%%%%%%%%%%%%%%%%%%%%

     stopping ...
Abort(1) on node 0 (rank 0 in comm 0): application called MPI_Abort(MPI_COMM_WORLD, 1) - process 0
