
     Program PWSCF v.6.7MaX starts on  9Feb2022 at 11: 5:33 

     This program is part of the open-source Quantum ESPRESSO suite
     for quantum simulation of materials; please cite
         "P. Giannozzi et al., J. Phys.:Condens. Matter 21 395502 (2009);
         "P. Giannozzi et al., J. Phys.:Condens. Matter 29 465901 (2017);
          URL http://www.quantum-espresso.org", 
     in publications or presentations arising from this work. More details at
     http://www.quantum-espresso.org/quote

     Parallel version (MPI), running on    24 processors

     MPI processes distributed on     1 nodes
     R & G space division:  proc/nbgrp/npool/nimage =      24
     Reading input from /home/kevin/QE_CoCrFeMnNi/CoCrFeMnNi/Opt/binary/Opt-B1-CrMn/Mix/MD/600K_0.0001Gpa-B1-CrMn/600K_0.0001Gpa-B1-CrMn.in

     Current dimensions of program PWSCF are:
     Max number of different atomic species (ntypx) = 10
     Max number of k-points (npk) =  40000
     Max angular momentum in pseudopotentials (lmaxx) =  3

     Subspace diagonalization in iterative solution of the eigenvalue problem:
     a serial algorithm will be used

     Found symmetry operation: I + (  0.0000  0.5000 -0.5000)
     This is a supercell, fractional translations are disabled

     Parallelization info
     --------------------
     sticks:   dense  smooth     PW     G-vecs:    dense   smooth      PW
     Min         272      91     24                16576     3195     458
     Max         273      92     25                16579     3198     463
     Sum        6549    2185    593               397847    76693   11075



     bravais-lattice index     =            0
     lattice parameter (alat)  =       8.7234  a.u.
     unit-cell volume          =     663.8202 (a.u.)^3
     number of atoms/cell      =            8
     number of atomic types    =            2
     number of electrons       =       116.00
     number of Kohn-Sham states=           70
     kinetic-energy cutoff     =      90.0000  Ry
     charge density cutoff     =    1080.0000  Ry
     scf convergence threshold =      1.0E-08
     mixing beta               =       0.2000
     number of iterations used =            4  plain     mixing
     energy convergence thresh.=      0.0E+00
     force convergence thresh. =      0.0E+00
     press convergence thresh. =      0.0E+00
     Exchange-correlation=  SLA  PW   PBX  PBC
                           (   1   4   3   4   0   0   0)
     nstep                     =          102


     celldm(1)=   8.723354  celldm(2)=   0.000000  celldm(3)=   0.000000
     celldm(4)=   0.000000  celldm(5)=   0.000000  celldm(6)=   0.000000

     crystal axes: (cart. coord. in units of alat)
               a(1) = (   1.000000   0.000000   0.000000 )  
               a(2) = (   0.000000   1.000000   0.000000 )  
               a(3) = (   0.000000   0.000000   1.000000 )  

     reciprocal axes: (cart. coord. in units 2 pi/alat)
               b(1) = (  1.000000  0.000000  0.000000 )  
               b(2) = (  0.000000  1.000000  0.000000 )  
               b(3) = (  0.000000  0.000000  1.000000 )  


     PseudoPot. # 1 for Mn read from file:
     /opt/QEpot/SSSP_efficiency_pseudos/mn_pbe_v1.5.uspp.F.UPF
     MD5 check sum: 82ef2b46521d7a7d9e736dc3972e4928
     Pseudo is Ultrasoft + core correction, Zval = 15.0
     Generated by new atomic code, or converted to UPF format
     Using radial grid of  859 points,  6 beta functions with: 
                l(1) =   0
                l(2) =   0
                l(3) =   1
                l(4) =   1
                l(5) =   2
                l(6) =   2
     Q(r) pseudized with  8 coefficients,  rinner =    0.950   0.950   0.950
                                                       0.950   0.950

     PseudoPot. # 2 for Cr read from file:
     /opt/QEpot/SSSP_efficiency_pseudos/cr_pbe_v1.5.uspp.F.UPF
     MD5 check sum: 0d52af634a40206e4dee301ad30da4bf
     Pseudo is Ultrasoft + core correction, Zval = 14.0
     Generated by new atomic code, or converted to UPF format
     Using radial grid of  857 points,  6 beta functions with: 
                l(1) =   0
                l(2) =   0
                l(3) =   1
                l(4) =   1
                l(5) =   2
                l(6) =   2
     Q(r) pseudized with  8 coefficients,  rinner =    0.950   0.950   0.950
                                                       0.950   0.950

     atomic species   valence    mass     pseudopotential
        Mn            15.00    54.93800     Mn( 1.00)
        Cr            14.00    51.99610     Cr( 1.00)

      cell mass =  32.50407 AMU 

     Starting magnetic structure 
     atomic species   magnetization
        Mn          -0.000
        Cr           0.000

     No symmetry found



   Cartesian axes

     site n.     atom                  positions (alat units)
         1           Mn  tau(   1) = (   0.0000000   0.5000000   0.0000000  )
         2           Cr  tau(   2) = (   0.5000000   0.0000000   0.5000000  )
         3           Mn  tau(   3) = (   0.0000000   0.0000000   0.5000000  )
         4           Cr  tau(   4) = (   0.5000000   0.5000000   0.0000000  )
         5           Mn  tau(   5) = (   0.5000000   0.0000000   0.0000000  )
         6           Cr  tau(   6) = (   0.0000000   0.5000000   0.5000000  )
         7           Mn  tau(   7) = (   0.5000000   0.5000000   0.5000000  )
         8           Cr  tau(   8) = (   0.0000000   0.0000000   0.0000000  )

     number of k points=    63  Gaussian smearing, width (Ry)=  0.0100
                       cart. coord. in units 2pi/alat
        k(    1) = (   0.0000000   0.0000000   0.0000000), wk =   0.0080000
        k(    2) = (   0.0000000   0.0000000   0.2000000), wk =   0.0160000
        k(    3) = (   0.0000000   0.0000000   0.4000000), wk =   0.0160000
        k(    4) = (   0.0000000   0.2000000   0.0000000), wk =   0.0160000
        k(    5) = (   0.0000000   0.2000000   0.2000000), wk =   0.0160000
        k(    6) = (   0.0000000   0.2000000   0.4000000), wk =   0.0160000
        k(    7) = (   0.0000000   0.2000000  -0.4000000), wk =   0.0160000
        k(    8) = (   0.0000000   0.2000000  -0.2000000), wk =   0.0160000
        k(    9) = (   0.0000000   0.4000000   0.0000000), wk =   0.0160000
        k(   10) = (   0.0000000   0.4000000   0.2000000), wk =   0.0160000
        k(   11) = (   0.0000000   0.4000000   0.4000000), wk =   0.0160000
        k(   12) = (   0.0000000   0.4000000  -0.4000000), wk =   0.0160000
        k(   13) = (   0.0000000   0.4000000  -0.2000000), wk =   0.0160000
        k(   14) = (   0.2000000   0.0000000   0.0000000), wk =   0.0160000
        k(   15) = (   0.2000000   0.0000000   0.2000000), wk =   0.0160000
        k(   16) = (   0.2000000   0.0000000   0.4000000), wk =   0.0160000
        k(   17) = (   0.2000000   0.0000000  -0.4000000), wk =   0.0160000
        k(   18) = (   0.2000000   0.0000000  -0.2000000), wk =   0.0160000
        k(   19) = (   0.2000000   0.2000000   0.0000000), wk =   0.0160000
        k(   20) = (   0.2000000   0.2000000   0.2000000), wk =   0.0160000
        k(   21) = (   0.2000000   0.2000000   0.4000000), wk =   0.0160000
        k(   22) = (   0.2000000   0.2000000  -0.4000000), wk =   0.0160000
        k(   23) = (   0.2000000   0.2000000  -0.2000000), wk =   0.0160000
        k(   24) = (   0.2000000   0.4000000   0.0000000), wk =   0.0160000
        k(   25) = (   0.2000000   0.4000000   0.2000000), wk =   0.0160000
        k(   26) = (   0.2000000   0.4000000   0.4000000), wk =   0.0160000
        k(   27) = (   0.2000000   0.4000000  -0.4000000), wk =   0.0160000
        k(   28) = (   0.2000000   0.4000000  -0.2000000), wk =   0.0160000
        k(   29) = (   0.2000000  -0.4000000   0.0000000), wk =   0.0160000
        k(   30) = (   0.2000000  -0.4000000   0.2000000), wk =   0.0160000
        k(   31) = (   0.2000000  -0.4000000   0.4000000), wk =   0.0160000
        k(   32) = (   0.2000000  -0.4000000  -0.4000000), wk =   0.0160000
        k(   33) = (   0.2000000  -0.4000000  -0.2000000), wk =   0.0160000
        k(   34) = (   0.2000000  -0.2000000   0.0000000), wk =   0.0160000
        k(   35) = (   0.2000000  -0.2000000   0.2000000), wk =   0.0160000
        k(   36) = (   0.2000000  -0.2000000   0.4000000), wk =   0.0160000
        k(   37) = (   0.2000000  -0.2000000  -0.4000000), wk =   0.0160000
        k(   38) = (   0.2000000  -0.2000000  -0.2000000), wk =   0.0160000
        k(   39) = (   0.4000000   0.0000000   0.0000000), wk =   0.0160000
        k(   40) = (   0.4000000   0.0000000   0.2000000), wk =   0.0160000
        k(   41) = (   0.4000000   0.0000000   0.4000000), wk =   0.0160000
        k(   42) = (   0.4000000   0.0000000  -0.4000000), wk =   0.0160000
        k(   43) = (   0.4000000   0.0000000  -0.2000000), wk =   0.0160000
        k(   44) = (   0.4000000   0.2000000   0.0000000), wk =   0.0160000
        k(   45) = (   0.4000000   0.2000000   0.2000000), wk =   0.0160000
        k(   46) = (   0.4000000   0.2000000   0.4000000), wk =   0.0160000
        k(   47) = (   0.4000000   0.2000000  -0.4000000), wk =   0.0160000
        k(   48) = (   0.4000000   0.2000000  -0.2000000), wk =   0.0160000
        k(   49) = (   0.4000000   0.4000000   0.0000000), wk =   0.0160000
        k(   50) = (   0.4000000   0.4000000   0.2000000), wk =   0.0160000
        k(   51) = (   0.4000000   0.4000000   0.4000000), wk =   0.0160000
        k(   52) = (   0.4000000   0.4000000  -0.4000000), wk =   0.0160000
        k(   53) = (   0.4000000   0.4000000  -0.2000000), wk =   0.0160000
        k(   54) = (   0.4000000  -0.4000000   0.0000000), wk =   0.0160000
        k(   55) = (   0.4000000  -0.4000000   0.2000000), wk =   0.0160000
        k(   56) = (   0.4000000  -0.4000000   0.4000000), wk =   0.0160000
        k(   57) = (   0.4000000  -0.4000000  -0.4000000), wk =   0.0160000
        k(   58) = (   0.4000000  -0.4000000  -0.2000000), wk =   0.0160000
        k(   59) = (   0.4000000  -0.2000000   0.0000000), wk =   0.0160000
        k(   60) = (   0.4000000  -0.2000000   0.2000000), wk =   0.0160000
        k(   61) = (   0.4000000  -0.2000000   0.4000000), wk =   0.0160000
        k(   62) = (   0.4000000  -0.2000000  -0.4000000), wk =   0.0160000
        k(   63) = (   0.4000000  -0.2000000  -0.2000000), wk =   0.0160000

     Dense  grid:   397847 G-vectors     FFT dimensions: (  96,  96,  96)

     Smooth grid:    76693 G-vectors     FFT dimensions: (  54,  54,  54)

     Estimated max dynamical RAM per process >     128.88 MB

     Estimated total dynamical RAM >       3.02 GB

     Check: negative core charge=   -0.000013
     Generating pointlists ...
     new r_m :   0.2063 (alat units)  1.7992 (a.u.) for type    1
     new r_m :   0.2063 (alat units)  1.7992 (a.u.) for type    2

     Initial potential from superposition of free atoms

     starting charge  109.99960, renormalised to  116.00000

     negative rho (up, down):  1.633E-03 1.633E-03
     Starting wfcs are   92 randomized atomic wfcs

     total cpu time spent up to now is       15.9 secs

     Self-consistent Calculation

     iteration #  1     ecut=    90.00 Ry     beta= 0.20
     Davidson diagonalization with overlap
     ethr =  1.00E-02,  avg # of iterations =  3.0

     negative rho (up, down):  1.429E-03 1.429E-03

     total cpu time spent up to now is       53.7 secs

     total energy              =   -1541.63961068 Ry
     estimated scf accuracy    <      28.30885434 Ry

     total magnetization       =    -0.00 Bohr mag/cell
     absolute magnetization    =     0.01 Bohr mag/cell

     iteration #  2     ecut=    90.00 Ry     beta= 0.20
     Davidson diagonalization with overlap
     ethr =  1.00E-02,  avg # of iterations =  5.1

     negative rho (up, down):  1.863E-03 1.863E-03

     total cpu time spent up to now is      100.5 secs

     total energy              =   -1544.58742662 Ry
     estimated scf accuracy    <      40.44607399 Ry

     total magnetization       =    -0.01 Bohr mag/cell
     absolute magnetization    =     0.04 Bohr mag/cell

     iteration #  3     ecut=    90.00 Ry     beta= 0.20
     Davidson diagonalization with overlap
     ethr =  1.00E-02,  avg # of iterations =  2.3

     negative rho (up, down):  5.197E-03 5.173E-03

     total cpu time spent up to now is      131.7 secs

     total energy              =   -1543.50953289 Ry
     estimated scf accuracy    <       3.79042007 Ry

     total magnetization       =    -0.02 Bohr mag/cell
     absolute magnetization    =     0.05 Bohr mag/cell

     iteration #  4     ecut=    90.00 Ry     beta= 0.20
     Davidson diagonalization with overlap
     ethr =  3.27E-03,  avg # of iterations =  6.1

     negative rho (up, down):  1.612E-03 1.612E-03

     total cpu time spent up to now is      189.8 secs

     total energy              =   -1537.30059017 Ry
     estimated scf accuracy    <     106.42486855 Ry

     total magnetization       =     0.03 Bohr mag/cell
     absolute magnetization    =     0.05 Bohr mag/cell

     iteration #  5     ecut=    90.00 Ry     beta= 0.20
     Davidson diagonalization with overlap
     ethr =  3.27E-03,  avg # of iterations =  7.8

     negative rho (up, down):  1.598E-03 1.600E-03

     total cpu time spent up to now is      246.8 secs

     total energy              =   -1546.52824037 Ry
     estimated scf accuracy    <       5.21023020 Ry

     total magnetization       =    -0.04 Bohr mag/cell
     absolute magnetization    =     0.07 Bohr mag/cell

     iteration #  6     ecut=    90.00 Ry     beta= 0.20
     Davidson diagonalization with overlap
     ethr =  3.27E-03,  avg # of iterations =  1.1

     negative rho (up, down):  1.712E-03 1.715E-03

     total cpu time spent up to now is      273.0 secs

     total energy              =   -1546.01077990 Ry
     estimated scf accuracy    <       3.44117735 Ry

     total magnetization       =    -0.03 Bohr mag/cell
     absolute magnetization    =     0.06 Bohr mag/cell

     iteration #  7     ecut=    90.00 Ry     beta= 0.20
     Davidson diagonalization with overlap
     ethr =  2.97E-03,  avg # of iterations =  1.3

     negative rho (up, down):  1.680E-03 1.683E-03

     total cpu time spent up to now is      299.8 secs

     total energy              =   -1546.20506311 Ry
     estimated scf accuracy    <       0.10361114 Ry

     total magnetization       =     0.00 Bohr mag/cell
     absolute magnetization    =     0.06 Bohr mag/cell

     iteration #  8     ecut=    90.00 Ry     beta= 0.20
     Davidson diagonalization with overlap
     ethr =  8.93E-05,  avg # of iterations =  6.4

     negative rho (up, down):  1.737E-03 1.739E-03

     total cpu time spent up to now is      350.6 secs

     total energy              =   -1546.27258659 Ry
     estimated scf accuracy    <       0.10641858 Ry

     total magnetization       =    -0.01 Bohr mag/cell
     absolute magnetization    =     0.02 Bohr mag/cell

     iteration #  9     ecut=    90.00 Ry     beta= 0.20
     Davidson diagonalization with overlap
     ethr =  8.93E-05,  avg # of iterations =  1.8

     negative rho (up, down):  1.651E-03 1.655E-03

     total cpu time spent up to now is      379.0 secs

     total energy              =   -1546.25969736 Ry
     estimated scf accuracy    <       0.08620270 Ry

     total magnetization       =    -0.01 Bohr mag/cell
     absolute magnetization    =     0.02 Bohr mag/cell

     iteration # 10     ecut=    90.00 Ry     beta= 0.20
     Davidson diagonalization with overlap
     ethr =  7.43E-05,  avg # of iterations =  5.9

     negative rho (up, down):  1.600E-03 1.607E-03

     total cpu time spent up to now is      417.5 secs

     total energy              =   -1546.21519760 Ry
     estimated scf accuracy    <       0.56705092 Ry

     total magnetization       =    -0.01 Bohr mag/cell
     absolute magnetization    =     0.04 Bohr mag/cell

     iteration # 11     ecut=    90.00 Ry     beta= 0.20
     Davidson diagonalization with overlap
     ethr =  7.43E-05,  avg # of iterations =  5.4

     negative rho (up, down):  1.593E-03 1.600E-03

     total cpu time spent up to now is      459.6 secs

     total energy              =   -1546.26861878 Ry
     estimated scf accuracy    <       0.21037774 Ry

     total magnetization       =    -0.01 Bohr mag/cell
     absolute magnetization    =     0.04 Bohr mag/cell

     iteration # 12     ecut=    90.00 Ry     beta= 0.20
     Davidson diagonalization with overlap
     ethr =  7.43E-05,  avg # of iterations =  1.1

     negative rho (up, down):  1.622E-03 1.628E-03

     total cpu time spent up to now is      485.7 secs

     total energy              =   -1546.25360227 Ry
     estimated scf accuracy    <       0.17400839 Ry

     total magnetization       =    -0.01 Bohr mag/cell
     absolute magnetization    =     0.04 Bohr mag/cell

     iteration # 13     ecut=    90.00 Ry     beta= 0.20
     Davidson diagonalization with overlap
     ethr =  7.43E-05,  avg # of iterations =  1.0

     negative rho (up, down):  1.628E-03 1.635E-03

     total cpu time spent up to now is      511.7 secs

     total energy              =   -1546.25853346 Ry
     estimated scf accuracy    <       0.02031691 Ry

     total magnetization       =    -0.01 Bohr mag/cell
     absolute magnetization    =     0.03 Bohr mag/cell

     iteration # 14     ecut=    90.00 Ry     beta= 0.20
     Davidson diagonalization with overlap
     ethr =  1.75E-05,  avg # of iterations =  3.1

     negative rho (up, down):  1.643E-03 1.652E-03

     total cpu time spent up to now is      543.4 secs

     total energy              =   -1546.25895573 Ry
     estimated scf accuracy    <       0.00478960 Ry

     total magnetization       =    -0.01 Bohr mag/cell
     absolute magnetization    =     0.04 Bohr mag/cell

     iteration # 15     ecut=    90.00 Ry     beta= 0.20
     Davidson diagonalization with overlap
     ethr =  4.13E-06,  avg # of iterations =  7.0

     negative rho (up, down):  1.634E-03 1.642E-03

     total cpu time spent up to now is      585.9 secs

     total energy              =   -1546.25852875 Ry
     estimated scf accuracy    <       0.01593153 Ry

     total magnetization       =    -0.01 Bohr mag/cell
     absolute magnetization    =     0.04 Bohr mag/cell

     iteration # 16     ecut=    90.00 Ry     beta= 0.20
     Davidson diagonalization with overlap
     ethr =  4.13E-06,  avg # of iterations =  4.7

     negative rho (up, down):  1.646E-03 1.656E-03

     total cpu time spent up to now is      619.7 secs

     total energy              =   -1546.25916792 Ry
     estimated scf accuracy    <       0.00684678 Ry

     total magnetization       =    -0.01 Bohr mag/cell
     absolute magnetization    =     0.04 Bohr mag/cell

     iteration # 17     ecut=    90.00 Ry     beta= 0.20
     Davidson diagonalization with overlap
     ethr =  4.13E-06,  avg # of iterations =  1.2

     negative rho (up, down):  1.649E-03 1.660E-03

     total cpu time spent up to now is      646.1 secs

     total energy              =   -1546.25922036 Ry
     estimated scf accuracy    <       0.00167837 Ry

     total magnetization       =    -0.01 Bohr mag/cell
     absolute magnetization    =     0.05 Bohr mag/cell

     iteration # 18     ecut=    90.00 Ry     beta= 0.20
     Davidson diagonalization with overlap
     ethr =  1.45E-06,  avg # of iterations =  1.9

     negative rho (up, down):  1.650E-03 1.662E-03

     total cpu time spent up to now is      674.8 secs

     total energy              =   -1546.25930966 Ry
     estimated scf accuracy    <       0.00076401 Ry

     total magnetization       =    -0.01 Bohr mag/cell
     absolute magnetization    =     0.05 Bohr mag/cell

     iteration # 19     ecut=    90.00 Ry     beta= 0.20
     Davidson diagonalization with overlap
     ethr =  6.59E-07,  avg # of iterations =  3.1

     negative rho (up, down):  1.650E-03 1.663E-03

     total cpu time spent up to now is      705.3 secs

     total energy              =   -1546.25934298 Ry
     estimated scf accuracy    <       0.00037327 Ry

     total magnetization       =    -0.01 Bohr mag/cell
     absolute magnetization    =     0.06 Bohr mag/cell

     iteration # 20     ecut=    90.00 Ry     beta= 0.20
     Davidson diagonalization with overlap
     ethr =  3.22E-07,  avg # of iterations =  1.9

     negative rho (up, down):  1.649E-03 1.662E-03

     total cpu time spent up to now is      733.6 secs

     total energy              =   -1546.25934872 Ry
     estimated scf accuracy    <       0.00030460 Ry

     total magnetization       =    -0.01 Bohr mag/cell
     absolute magnetization    =     0.06 Bohr mag/cell

     iteration # 21     ecut=    90.00 Ry     beta= 0.20
     Davidson diagonalization with overlap
     ethr =  2.63E-07,  avg # of iterations =  1.4

     negative rho (up, down):  1.648E-03 1.663E-03

     total cpu time spent up to now is      760.7 secs

     total energy              =   -1546.25936380 Ry
     estimated scf accuracy    <       0.00006465 Ry

     total magnetization       =    -0.01 Bohr mag/cell
     absolute magnetization    =     0.06 Bohr mag/cell

     iteration # 22     ecut=    90.00 Ry     beta= 0.20
     Davidson diagonalization with overlap
     ethr =  5.57E-08,  avg # of iterations =  4.5

     negative rho (up, down):  1.647E-03 1.662E-03

     total cpu time spent up to now is      794.5 secs

     total energy              =   -1546.25936263 Ry
     estimated scf accuracy    <       0.00011329 Ry

     total magnetization       =    -0.01 Bohr mag/cell
     absolute magnetization    =     0.07 Bohr mag/cell

     iteration # 23     ecut=    90.00 Ry     beta= 0.20
     Davidson diagonalization with overlap
     ethr =  5.57E-08,  avg # of iterations =  2.4

     negative rho (up, down):  1.647E-03 1.662E-03

     total cpu time spent up to now is      823.6 secs

     total energy              =   -1546.25936699 Ry
     estimated scf accuracy    <       0.00004754 Ry

     total magnetization       =    -0.01 Bohr mag/cell
     absolute magnetization    =     0.07 Bohr mag/cell

     iteration # 24     ecut=    90.00 Ry     beta= 0.20
     Davidson diagonalization with overlap
     ethr =  4.10E-08,  avg # of iterations =  1.7

     negative rho (up, down):  1.646E-03 1.662E-03

     total cpu time spent up to now is      851.6 secs

     total energy              =   -1546.25936883 Ry
     estimated scf accuracy    <       0.00001712 Ry

     total magnetization       =    -0.01 Bohr mag/cell
     absolute magnetization    =     0.07 Bohr mag/cell

     iteration # 25     ecut=    90.00 Ry     beta= 0.20
     Davidson diagonalization with overlap
     ethr =  1.48E-08,  avg # of iterations =  3.0

     negative rho (up, down):  1.645E-03 1.662E-03

     total cpu time spent up to now is      882.2 secs

     total energy              =   -1546.25936876 Ry
     estimated scf accuracy    <       0.00002134 Ry

     total magnetization       =    -0.01 Bohr mag/cell
     absolute magnetization    =     0.07 Bohr mag/cell

     iteration # 26     ecut=    90.00 Ry     beta= 0.20
     Davidson diagonalization with overlap
     ethr =  1.48E-08,  avg # of iterations =  1.1

     negative rho (up, down):  1.644E-03 1.662E-03

     total cpu time spent up to now is      908.3 secs

     total energy              =   -1546.25936861 Ry
     estimated scf accuracy    <       0.00001209 Ry

     total magnetization       =    -0.01 Bohr mag/cell
     absolute magnetization    =     0.08 Bohr mag/cell

     iteration # 27     ecut=    90.00 Ry     beta= 0.20
     Davidson diagonalization with overlap
     ethr =  1.04E-08,  avg # of iterations =  3.6

     negative rho (up, down):  1.641E-03 1.662E-03

     total cpu time spent up to now is      940.1 secs

     total energy              =   -1546.25936911 Ry
     estimated scf accuracy    <       0.00003619 Ry

     total magnetization       =    -0.02 Bohr mag/cell
     absolute magnetization    =     0.08 Bohr mag/cell

     iteration # 28     ecut=    90.00 Ry     beta= 0.20
     Davidson diagonalization with overlap
     ethr =  1.04E-08,  avg # of iterations =  1.5

     negative rho (up, down):  1.641E-03 1.663E-03

     total cpu time spent up to now is      967.2 secs

     total energy              =   -1546.25937053 Ry
     estimated scf accuracy    <       0.00000327 Ry

     total magnetization       =    -0.02 Bohr mag/cell
     absolute magnetization    =     0.09 Bohr mag/cell

     iteration # 29     ecut=    90.00 Ry     beta= 0.20
     Davidson diagonalization with overlap
     ethr =  2.82E-09,  avg # of iterations =  4.3

     negative rho (up, down):  1.641E-03 1.663E-03

     total cpu time spent up to now is     1001.3 secs

     total energy              =   -1546.25937091 Ry
     estimated scf accuracy    <       0.00000944 Ry

     total magnetization       =    -0.02 Bohr mag/cell
     absolute magnetization    =     0.09 Bohr mag/cell

     iteration # 30     ecut=    90.00 Ry     beta= 0.20
     Davidson diagonalization with overlap
     ethr =  2.82E-09,  avg # of iterations =  2.5

     negative rho (up, down):  1.640E-03 1.663E-03

     total cpu time spent up to now is     1030.5 secs

     total energy              =   -1546.25937152 Ry
     estimated scf accuracy    <       0.00000428 Ry

     total magnetization       =    -0.02 Bohr mag/cell
     absolute magnetization    =     0.10 Bohr mag/cell

     iteration # 31     ecut=    90.00 Ry     beta= 0.20
     Davidson diagonalization with overlap
     ethr =  2.82E-09,  avg # of iterations =  1.5

     negative rho (up, down):  1.640E-03 1.663E-03

     total cpu time spent up to now is     1057.8 secs

     total energy              =   -1546.25937160 Ry
     estimated scf accuracy    <       0.00000287 Ry

     total magnetization       =    -0.02 Bohr mag/cell
     absolute magnetization    =     0.10 Bohr mag/cell

     iteration # 32     ecut=    90.00 Ry     beta= 0.20
     Davidson diagonalization with overlap
     ethr =  2.47E-09,  avg # of iterations =  1.0

     negative rho (up, down):  1.640E-03 1.663E-03

     total cpu time spent up to now is     1083.6 secs

     total energy              =   -1546.25937158 Ry
     estimated scf accuracy    <       0.00000269 Ry

     total magnetization       =    -0.02 Bohr mag/cell
     absolute magnetization    =     0.10 Bohr mag/cell

     iteration # 33     ecut=    90.00 Ry     beta= 0.20
     Davidson diagonalization with overlap
     ethr =  2.32E-09,  avg # of iterations =  1.0

     negative rho (up, down):  1.639E-03 1.664E-03

     total cpu time spent up to now is     1109.6 secs

     total energy              =   -1546.25937203 Ry
     estimated scf accuracy    <       0.00000326 Ry

     total magnetization       =    -0.02 Bohr mag/cell
     absolute magnetization    =     0.10 Bohr mag/cell

     iteration # 34     ecut=    90.00 Ry     beta= 0.20
     Davidson diagonalization with overlap
     ethr =  2.32E-09,  avg # of iterations =  2.7

     negative rho (up, down):  1.639E-03 1.664E-03

     total cpu time spent up to now is     1139.9 secs

     total energy              =   -1546.25937228 Ry
     estimated scf accuracy    <       0.00000696 Ry

     total magnetization       =    -0.02 Bohr mag/cell
     absolute magnetization    =     0.11 Bohr mag/cell

     iteration # 35     ecut=    90.00 Ry     beta= 0.20
     Davidson diagonalization with overlap
     ethr =  2.32E-09,  avg # of iterations =  1.1

     negative rho (up, down):  1.639E-03 1.664E-03

     total cpu time spent up to now is     1166.0 secs

     total energy              =   -1546.25937216 Ry
     estimated scf accuracy    <       0.00000285 Ry

     total magnetization       =    -0.02 Bohr mag/cell
     absolute magnetization    =     0.11 Bohr mag/cell

     iteration # 36     ecut=    90.00 Ry     beta= 0.20
     Davidson diagonalization with overlap
     ethr =  2.32E-09,  avg # of iterations =  1.0

     negative rho (up, down):  1.640E-03 1.663E-03

     total cpu time spent up to now is     1191.9 secs

     total energy              =   -1546.25937181 Ry
     estimated scf accuracy    <       0.00000336 Ry

     total magnetization       =    -0.02 Bohr mag/cell
     absolute magnetization    =     0.11 Bohr mag/cell

     iteration # 37     ecut=    90.00 Ry     beta= 0.20
     Davidson diagonalization with overlap
     ethr =  2.32E-09,  avg # of iterations =  1.0

     negative rho (up, down):  1.638E-03 1.665E-03

     total cpu time spent up to now is     1217.6 secs

     total energy              =   -1546.25937267 Ry
     estimated scf accuracy    <       0.00000407 Ry

     total magnetization       =    -0.02 Bohr mag/cell
     absolute magnetization    =     0.10 Bohr mag/cell

     iteration # 38     ecut=    90.00 Ry     beta= 0.20
     Davidson diagonalization with overlap
     ethr =  2.32E-09,  avg # of iterations =  1.7

     negative rho (up, down):  1.637E-03 1.665E-03

     total cpu time spent up to now is     1245.4 secs

     total energy              =   -1546.25937352 Ry
     estimated scf accuracy    <       0.00000431 Ry

     total magnetization       =    -0.02 Bohr mag/cell
     absolute magnetization    =     0.11 Bohr mag/cell

     iteration # 39     ecut=    90.00 Ry     beta= 0.20
     Davidson diagonalization with overlap
     ethr =  2.32E-09,  avg # of iterations =  1.5

     negative rho (up, down):  1.638E-03 1.665E-03

     total cpu time spent up to now is     1272.8 secs

     total energy              =   -1546.25937362 Ry
     estimated scf accuracy    <       0.00000335 Ry

     total magnetization       =    -0.02 Bohr mag/cell
     absolute magnetization    =     0.12 Bohr mag/cell

     iteration # 40     ecut=    90.00 Ry     beta= 0.20
     Davidson diagonalization with overlap
     ethr =  2.32E-09,  avg # of iterations =  1.0

     negative rho (up, down):  1.638E-03 1.665E-03

     total cpu time spent up to now is     1298.8 secs

     total energy              =   -1546.25937352 Ry
     estimated scf accuracy    <       0.00000379 Ry

     total magnetization       =    -0.02 Bohr mag/cell
     absolute magnetization    =     0.12 Bohr mag/cell

     iteration # 41     ecut=    90.00 Ry     beta= 0.20
     Davidson diagonalization with overlap
     ethr =  2.32E-09,  avg # of iterations =  1.0

     negative rho (up, down):  1.637E-03 1.665E-03

     total cpu time spent up to now is     1324.7 secs

     total energy              =   -1546.25937365 Ry
     estimated scf accuracy    <       0.00000468 Ry

     total magnetization       =    -0.02 Bohr mag/cell
     absolute magnetization    =     0.12 Bohr mag/cell

     iteration # 42     ecut=    90.00 Ry     beta= 0.20
     Davidson diagonalization with overlap
     ethr =  2.32E-09,  avg # of iterations =  1.1

     negative rho (up, down):  1.637E-03 1.666E-03

     total cpu time spent up to now is     1350.7 secs

     total energy              =   -1546.25937435 Ry
     estimated scf accuracy    <       0.00000469 Ry

     total magnetization       =    -0.02 Bohr mag/cell
     absolute magnetization    =     0.12 Bohr mag/cell

     iteration # 43     ecut=    90.00 Ry     beta= 0.20
     Davidson diagonalization with overlap
     ethr =  2.32E-09,  avg # of iterations =  2.1

     negative rho (up, down):  1.636E-03 1.666E-03

     total cpu time spent up to now is     1379.1 secs

     total energy              =   -1546.25937474 Ry
     estimated scf accuracy    <       0.00000703 Ry

     total magnetization       =    -0.02 Bohr mag/cell
     absolute magnetization    =     0.13 Bohr mag/cell

     iteration # 44     ecut=    90.00 Ry     beta= 0.20
     Davidson diagonalization with overlap
     ethr =  2.32E-09,  avg # of iterations =  1.0

     negative rho (up, down):  1.636E-03 1.666E-03

     total cpu time spent up to now is     1404.9 secs

     total energy              =   -1546.25937462 Ry
     estimated scf accuracy    <       0.00000409 Ry

     total magnetization       =    -0.02 Bohr mag/cell
     absolute magnetization    =     0.13 Bohr mag/cell

     iteration # 45     ecut=    90.00 Ry     beta= 0.20
     Davidson diagonalization with overlap
     ethr =  2.32E-09,  avg # of iterations =  1.3

     negative rho (up, down):  1.636E-03 1.666E-03

     total cpu time spent up to now is     1431.7 secs

     total energy              =   -1546.25937479 Ry
     estimated scf accuracy    <       0.00000606 Ry

     total magnetization       =    -0.02 Bohr mag/cell
     absolute magnetization    =     0.13 Bohr mag/cell

     iteration # 46     ecut=    90.00 Ry     beta= 0.20
     Davidson diagonalization with overlap
     ethr =  2.32E-09,  avg # of iterations =  1.2

     negative rho (up, down):  1.636E-03 1.667E-03

     total cpu time spent up to now is     1458.1 secs

     total energy              =   -1546.25937519 Ry
     estimated scf accuracy    <       0.00000709 Ry

     total magnetization       =    -0.02 Bohr mag/cell
     absolute magnetization    =     0.13 Bohr mag/cell

     iteration # 47     ecut=    90.00 Ry     beta= 0.20
     Davidson diagonalization with overlap
     ethr =  2.32E-09,  avg # of iterations =  1.8

     negative rho (up, down):  1.635E-03 1.667E-03

     total cpu time spent up to now is     1486.6 secs

     total energy              =   -1546.25937590 Ry
     estimated scf accuracy    <       0.00000722 Ry

     total magnetization       =    -0.02 Bohr mag/cell
     absolute magnetization    =     0.13 Bohr mag/cell

     iteration # 48     ecut=    90.00 Ry     beta= 0.20
     Davidson diagonalization with overlap
     ethr =  2.32E-09,  avg # of iterations =  1.6

     negative rho (up, down):  1.635E-03 1.668E-03

     total cpu time spent up to now is     1514.0 secs

     total energy              =   -1546.25937626 Ry
     estimated scf accuracy    <       0.00000645 Ry

     total magnetization       =    -0.02 Bohr mag/cell
     absolute magnetization    =     0.14 Bohr mag/cell

     iteration # 49     ecut=    90.00 Ry     beta= 0.20
     Davidson diagonalization with overlap
     ethr =  2.32E-09,  avg # of iterations =  1.0

     negative rho (up, down):  1.634E-03 1.668E-03

     total cpu time spent up to now is     1539.7 secs

     total energy              =   -1546.25937699 Ry
     estimated scf accuracy    <       0.00000450 Ry

     total magnetization       =    -0.02 Bohr mag/cell
     absolute magnetization    =     0.14 Bohr mag/cell

     iteration # 50     ecut=    90.00 Ry     beta= 0.20
     Davidson diagonalization with overlap
     ethr =  2.32E-09,  avg # of iterations =  2.1

     negative rho (up, down):  1.634E-03 1.669E-03

     total cpu time spent up to now is     1568.3 secs

     total energy              =   -1546.25937730 Ry
     estimated scf accuracy    <       0.00000769 Ry

     total magnetization       =    -0.03 Bohr mag/cell
     absolute magnetization    =     0.14 Bohr mag/cell

     iteration # 51     ecut=    90.00 Ry     beta= 0.20
     Davidson diagonalization with overlap
     ethr =  2.32E-09,  avg # of iterations =  1.0

     negative rho (up, down):  1.634E-03 1.669E-03

     total cpu time spent up to now is     1594.1 secs

     total energy              =   -1546.25937787 Ry
     estimated scf accuracy    <       0.00000639 Ry

     total magnetization       =    -0.03 Bohr mag/cell
     absolute magnetization    =     0.15 Bohr mag/cell

     iteration # 52     ecut=    90.00 Ry     beta= 0.20
     Davidson diagonalization with overlap
     ethr =  2.32E-09,  avg # of iterations =  1.2

     negative rho (up, down):  1.634E-03 1.669E-03

     total cpu time spent up to now is     1620.5 secs

     total energy              =   -1546.25937779 Ry
     estimated scf accuracy    <       0.00000559 Ry

     total magnetization       =    -0.03 Bohr mag/cell
     absolute magnetization    =     0.15 Bohr mag/cell

     iteration # 53     ecut=    90.00 Ry     beta= 0.20
     Davidson diagonalization with overlap
     ethr =  2.32E-09,  avg # of iterations =  1.0

     negative rho (up, down):  1.635E-03 1.668E-03

     total cpu time spent up to now is     1646.2 secs

     total energy              =   -1546.25937662 Ry
     estimated scf accuracy    <       0.00000654 Ry

     total magnetization       =    -0.03 Bohr mag/cell
     absolute magnetization    =     0.15 Bohr mag/cell

     iteration # 54     ecut=    90.00 Ry     beta= 0.20
     Davidson diagonalization with overlap
     ethr =  2.32E-09,  avg # of iterations =  1.6

     negative rho (up, down):  1.632E-03 1.671E-03

     total cpu time spent up to now is     1673.6 secs

     total energy              =   -1546.25937912 Ry
     estimated scf accuracy    <       0.00000895 Ry

     total magnetization       =    -0.03 Bohr mag/cell
     absolute magnetization    =     0.14 Bohr mag/cell

     iteration # 55     ecut=    90.00 Ry     beta= 0.20
     Davidson diagonalization with overlap
     ethr =  2.32E-09,  avg # of iterations =  3.3

     negative rho (up, down):  1.632E-03 1.671E-03

     total cpu time spent up to now is     1706.5 secs

     total energy              =   -1546.25938022 Ry
     estimated scf accuracy    <       0.00000933 Ry

     total magnetization       =    -0.03 Bohr mag/cell
     absolute magnetization    =     0.17 Bohr mag/cell

     iteration # 56     ecut=    90.00 Ry     beta= 0.20
     Davidson diagonalization with overlap
     ethr =  2.32E-09,  avg # of iterations =  1.0

     negative rho (up, down):  1.632E-03 1.671E-03

     total cpu time spent up to now is     1732.3 secs

     total energy              =   -1546.25938011 Ry
     estimated scf accuracy    <       0.00000744 Ry

     total magnetization       =    -0.03 Bohr mag/cell
     absolute magnetization    =     0.16 Bohr mag/cell

     iteration # 57     ecut=    90.00 Ry     beta= 0.20
     Davidson diagonalization with overlap
     ethr =  2.32E-09,  avg # of iterations =  1.0

     negative rho (up, down):  1.632E-03 1.671E-03

     total cpu time spent up to now is     1758.0 secs

     total energy              =   -1546.25938001 Ry
     estimated scf accuracy    <       0.00000822 Ry

     total magnetization       =    -0.03 Bohr mag/cell
     absolute magnetization    =     0.16 Bohr mag/cell

     iteration # 58     ecut=    90.00 Ry     beta= 0.20
     Davidson diagonalization with overlap
     ethr =  2.32E-09,  avg # of iterations =  2.4

     negative rho (up, down):  1.631E-03 1.671E-03

     total cpu time spent up to now is     1787.3 secs

     total energy              =   -1546.25938043 Ry
     estimated scf accuracy    <       0.00001234 Ry

     total magnetization       =    -0.03 Bohr mag/cell
     absolute magnetization    =     0.16 Bohr mag/cell

     iteration # 59     ecut=    90.00 Ry     beta= 0.20
     Davidson diagonalization with overlap
     ethr =  2.32E-09,  avg # of iterations =  2.2

     negative rho (up, down):  1.630E-03 1.672E-03

     total cpu time spent up to now is     1816.5 secs

     total energy              =   -1546.25938180 Ry
     estimated scf accuracy    <       0.00000958 Ry

     total magnetization       =    -0.03 Bohr mag/cell
     absolute magnetization    =     0.17 Bohr mag/cell

     iteration # 60     ecut=    90.00 Ry     beta= 0.20
     Davidson diagonalization with overlap
     ethr =  2.32E-09,  avg # of iterations =  3.2

     negative rho (up, down):  1.630E-03 1.672E-03

     total cpu time spent up to now is     1847.4 secs

     total energy              =   -1546.25938255 Ry
     estimated scf accuracy    <       0.00001333 Ry

     total magnetization       =    -0.03 Bohr mag/cell
     absolute magnetization    =     0.18 Bohr mag/cell

     iteration # 61     ecut=    90.00 Ry     beta= 0.20
     Davidson diagonalization with overlap
     ethr =  2.32E-09,  avg # of iterations =  1.5

     negative rho (up, down):  1.630E-03 1.673E-03

     total cpu time spent up to now is     1874.4 secs

     total energy              =   -1546.25938287 Ry
     estimated scf accuracy    <       0.00000989 Ry

     total magnetization       =    -0.03 Bohr mag/cell
     absolute magnetization    =     0.18 Bohr mag/cell

     iteration # 62     ecut=    90.00 Ry     beta= 0.20
     Davidson diagonalization with overlap
     ethr =  2.32E-09,  avg # of iterations =  1.4

     negative rho (up, down):  1.629E-03 1.673E-03

     total cpu time spent up to now is     1901.3 secs

     total energy              =   -1546.25938344 Ry
     estimated scf accuracy    <       0.00001016 Ry

     total magnetization       =    -0.03 Bohr mag/cell
     absolute magnetization    =     0.18 Bohr mag/cell

     iteration # 63     ecut=    90.00 Ry     beta= 0.20
     Davidson diagonalization with overlap
     ethr =  2.32E-09,  avg # of iterations =  3.4

     negative rho (up, down):  1.629E-03 1.673E-03

     total cpu time spent up to now is     1932.7 secs

     total energy              =   -1546.25938387 Ry
     estimated scf accuracy    <       0.00001701 Ry

     total magnetization       =    -0.03 Bohr mag/cell
     absolute magnetization    =     0.18 Bohr mag/cell

     iteration # 64     ecut=    90.00 Ry     beta= 0.20
     Davidson diagonalization with overlap
     ethr =  2.32E-09,  avg # of iterations =  2.5

     negative rho (up, down):  1.628E-03 1.674E-03

     total cpu time spent up to now is     1962.2 secs

     total energy              =   -1546.25938510 Ry
     estimated scf accuracy    <       0.00001236 Ry

     total magnetization       =    -0.03 Bohr mag/cell
     absolute magnetization    =     0.19 Bohr mag/cell

     iteration # 65     ecut=    90.00 Ry     beta= 0.20
     Davidson diagonalization with overlap
     ethr =  2.32E-09,  avg # of iterations =  4.3

     negative rho (up, down):  1.628E-03 1.674E-03

     total cpu time spent up to now is     1995.9 secs

     total energy              =   -1546.25938568 Ry
     estimated scf accuracy    <       0.00001839 Ry

     total magnetization       =    -0.03 Bohr mag/cell
     absolute magnetization    =     0.19 Bohr mag/cell

     iteration # 66     ecut=    90.00 Ry     beta= 0.20
     Davidson diagonalization with overlap
     ethr =  2.32E-09,  avg # of iterations =  2.4

     negative rho (up, down):  1.628E-03 1.675E-03

     total cpu time spent up to now is     2024.9 secs

     total energy              =   -1546.25938649 Ry
     estimated scf accuracy    <       0.00000990 Ry

     total magnetization       =    -0.03 Bohr mag/cell
     absolute magnetization    =     0.20 Bohr mag/cell

     iteration # 67     ecut=    90.00 Ry     beta= 0.20
     Davidson diagonalization with overlap
     ethr =  2.32E-09,  avg # of iterations =  2.4

     negative rho (up, down):  1.627E-03 1.676E-03

     total cpu time spent up to now is     2054.4 secs

     total energy              =   -1546.25938749 Ry
     estimated scf accuracy    <       0.00001431 Ry

     total magnetization       =    -0.03 Bohr mag/cell
     absolute magnetization    =     0.20 Bohr mag/cell

     iteration # 68     ecut=    90.00 Ry     beta= 0.20
     Davidson diagonalization with overlap
     ethr =  2.32E-09,  avg # of iterations =  4.4

     negative rho (up, down):  1.626E-03 1.676E-03

     total cpu time spent up to now is     2087.9 secs

     total energy              =   -1546.25938807 Ry
     estimated scf accuracy    <       0.00002128 Ry

     total magnetization       =    -0.04 Bohr mag/cell
     absolute magnetization    =     0.21 Bohr mag/cell

     iteration # 69     ecut=    90.00 Ry     beta= 0.20
     Davidson diagonalization with overlap
     ethr =  2.32E-09,  avg # of iterations =  2.8

     negative rho (up, down):  1.626E-03 1.676E-03

     total cpu time spent up to now is     2118.1 secs

     total energy              =   -1546.25938920 Ry
     estimated scf accuracy    <       0.00001367 Ry

     total magnetization       =    -0.04 Bohr mag/cell
     absolute magnetization    =     0.21 Bohr mag/cell

     iteration # 70     ecut=    90.00 Ry     beta= 0.20
     Davidson diagonalization with overlap
     ethr =  2.32E-09,  avg # of iterations =  3.5

     negative rho (up, down):  1.626E-03 1.677E-03

     total cpu time spent up to now is     2150.0 secs

     total energy              =   -1546.25938973 Ry
     estimated scf accuracy    <       0.00001667 Ry

     total magnetization       =    -0.04 Bohr mag/cell
     absolute magnetization    =     0.21 Bohr mag/cell

     iteration # 71     ecut=    90.00 Ry     beta= 0.20
     Davidson diagonalization with overlap
     ethr =  2.32E-09,  avg # of iterations =  1.1

     negative rho (up, down):  1.625E-03 1.677E-03

     total cpu time spent up to now is     2176.0 secs

     total energy              =   -1546.25939050 Ry
     estimated scf accuracy    <       0.00001139 Ry

     total magnetization       =    -0.04 Bohr mag/cell
     absolute magnetization    =     0.21 Bohr mag/cell

     iteration # 72     ecut=    90.00 Ry     beta= 0.20
     Davidson diagonalization with overlap
     ethr =  2.32E-09,  avg # of iterations =  4.6

     negative rho (up, down):  1.624E-03 1.679E-03

     total cpu time spent up to now is     2211.1 secs

     total energy              =   -1546.25939237 Ry
     estimated scf accuracy    <       0.00002702 Ry

     total magnetization       =    -0.04 Bohr mag/cell
     absolute magnetization    =     0.22 Bohr mag/cell

     iteration # 73     ecut=    90.00 Ry     beta= 0.20
     Davidson diagonalization with overlap
     ethr =  2.32E-09,  avg # of iterations =  3.2

     negative rho (up, down):  1.624E-03 1.679E-03

     total cpu time spent up to now is     2243.7 secs

     total energy              =   -1546.25939338 Ry
     estimated scf accuracy    <       0.00002105 Ry

     total magnetization       =    -0.04 Bohr mag/cell
     absolute magnetization    =     0.23 Bohr mag/cell

     iteration # 74     ecut=    90.00 Ry     beta= 0.20
     Davidson diagonalization with overlap
     ethr =  2.32E-09,  avg # of iterations =  1.3

     negative rho (up, down):  1.624E-03 1.679E-03

     total cpu time spent up to now is     2270.4 secs

     total energy              =   -1546.25939358 Ry
     estimated scf accuracy    <       0.00001512 Ry

     total magnetization       =    -0.04 Bohr mag/cell
     absolute magnetization    =     0.23 Bohr mag/cell

     iteration # 75     ecut=    90.00 Ry     beta= 0.20
     Davidson diagonalization with overlap
     ethr =  2.32E-09,  avg # of iterations =  1.1

     negative rho (up, down):  1.624E-03 1.678E-03

     total cpu time spent up to now is     2296.4 secs

     total energy              =   -1546.25939312 Ry
     estimated scf accuracy    <       0.00001609 Ry

     total magnetization       =    -0.04 Bohr mag/cell
     absolute magnetization    =     0.23 Bohr mag/cell

     iteration # 76     ecut=    90.00 Ry     beta= 0.20
     Davidson diagonalization with overlap
     ethr =  2.32E-09,  avg # of iterations =  1.6

     negative rho (up, down):  1.622E-03 1.680E-03

     total cpu time spent up to now is     2323.7 secs

     total energy              =   -1546.25939573 Ry
     estimated scf accuracy    <       0.00001770 Ry

     total magnetization       =    -0.04 Bohr mag/cell
     absolute magnetization    =     0.23 Bohr mag/cell

     iteration # 77     ecut=    90.00 Ry     beta= 0.20
     Davidson diagonalization with overlap
     ethr =  2.32E-09,  avg # of iterations =  5.6

     negative rho (up, down):  1.621E-03 1.681E-03

     total cpu time spent up to now is     2367.1 secs

     total energy              =   -1546.25939683 Ry
     estimated scf accuracy    <       0.00005998 Ry

     total magnetization       =    -0.04 Bohr mag/cell
     absolute magnetization    =     0.25 Bohr mag/cell

     iteration # 78     ecut=    90.00 Ry     beta= 0.20
     Davidson diagonalization with overlap
     ethr =  2.32E-09,  avg # of iterations =  5.2

     negative rho (up, down):  1.621E-03 1.681E-03

     total cpu time spent up to now is     2404.0 secs

     total energy              =   -1546.25939856 Ry
     estimated scf accuracy    <       0.00001695 Ry

     total magnetization       =    -0.04 Bohr mag/cell
     absolute magnetization    =     0.25 Bohr mag/cell

     iteration # 79     ecut=    90.00 Ry     beta= 0.20
     Davidson diagonalization with overlap
     ethr =  2.32E-09,  avg # of iterations =  1.0

     negative rho (up, down):  1.621E-03 1.681E-03

     total cpu time spent up to now is     2429.8 secs

     total energy              =   -1546.25939895 Ry
     estimated scf accuracy    <       0.00001829 Ry

     total magnetization       =    -0.04 Bohr mag/cell
     absolute magnetization    =     0.25 Bohr mag/cell

     iteration # 80     ecut=    90.00 Ry     beta= 0.20
     Davidson diagonalization with overlap
     ethr =  2.32E-09,  avg # of iterations =  2.9

     negative rho (up, down):  1.621E-03 1.682E-03

     total cpu time spent up to now is     2460.5 secs

     total energy              =   -1546.25939953 Ry
     estimated scf accuracy    <       0.00002256 Ry

     total magnetization       =    -0.04 Bohr mag/cell
     absolute magnetization    =     0.25 Bohr mag/cell

     iteration # 81     ecut=    90.00 Ry     beta= 0.20
     Davidson diagonalization with overlap
     ethr =  2.32E-09,  avg # of iterations =  2.4

     negative rho (up, down):  1.619E-03 1.684E-03

     total cpu time spent up to now is     2490.0 secs

     total energy              =   -1546.25940223 Ry
     estimated scf accuracy    <       0.00002104 Ry

     total magnetization       =    -0.04 Bohr mag/cell
     absolute magnetization    =     0.26 Bohr mag/cell

     iteration # 82     ecut=    90.00 Ry     beta= 0.20
     Davidson diagonalization with overlap
     ethr =  2.32E-09,  avg # of iterations =  5.6

     negative rho (up, down):  1.619E-03 1.684E-03

     total cpu time spent up to now is     2531.3 secs

     total energy              =   -1546.25940295 Ry
     estimated scf accuracy    <       0.00006083 Ry

     total magnetization       =    -0.05 Bohr mag/cell
     absolute magnetization    =     0.27 Bohr mag/cell

     iteration # 83     ecut=    90.00 Ry     beta= 0.20
     Davidson diagonalization with overlap
     ethr =  2.32E-09,  avg # of iterations =  4.5

     negative rho (up, down):  1.625E-03 1.677E-03

     total cpu time spent up to now is     2565.0 secs

     total energy              =   -1546.25938505 Ry
     estimated scf accuracy    <       0.00001883 Ry

     total magnetization       =    -0.05 Bohr mag/cell
     absolute magnetization    =     0.27 Bohr mag/cell

     iteration # 84     ecut=    90.00 Ry     beta= 0.20
     Davidson diagonalization with overlap
     ethr =  2.32E-09,  avg # of iterations =  5.6

     negative rho (up, down):  1.619E-03 1.683E-03

     total cpu time spent up to now is     2611.1 secs

     total energy              =   -1546.25939486 Ry
     estimated scf accuracy    <       0.00006069 Ry

     total magnetization       =    -0.04 Bohr mag/cell
     absolute magnetization    =     0.22 Bohr mag/cell

     iteration # 85     ecut=    90.00 Ry     beta= 0.20
     Davidson diagonalization with overlap
     ethr =  2.32E-09,  avg # of iterations =  6.0

     negative rho (up, down):  1.618E-03 1.684E-03

     total cpu time spent up to now is     2658.5 secs

     total energy              =   -1546.25940232 Ry
     estimated scf accuracy    <       0.00006438 Ry

     total magnetization       =    -0.05 Bohr mag/cell
     absolute magnetization    =     0.27 Bohr mag/cell

     iteration # 86     ecut=    90.00 Ry     beta= 0.20
     Davidson diagonalization with overlap
     ethr =  2.32E-09,  avg # of iterations =  5.8

     negative rho (up, down):  1.617E-03 1.685E-03

     total cpu time spent up to now is     2701.9 secs

     total energy              =   -1546.25940599 Ry
     estimated scf accuracy    <       0.00004395 Ry

     total magnetization       =    -0.05 Bohr mag/cell
     absolute magnetization    =     0.27 Bohr mag/cell

     iteration # 87     ecut=    90.00 Ry     beta= 0.20
     Davidson diagonalization with overlap
     ethr =  2.32E-09,  avg # of iterations =  4.7

     negative rho (up, down):  1.618E-03 1.685E-03

     total cpu time spent up to now is     2737.4 secs

     total energy              =   -1546.25940615 Ry
     estimated scf accuracy    <       0.00002325 Ry

     total magnetization       =    -0.05 Bohr mag/cell
     absolute magnetization    =     0.28 Bohr mag/cell

     iteration # 88     ecut=    90.00 Ry     beta= 0.20
     Davidson diagonalization with overlap
     ethr =  2.32E-09,  avg # of iterations =  2.8

     negative rho (up, down):  1.618E-03 1.685E-03

     total cpu time spent up to now is     2768.0 secs

     total energy              =   -1546.25940630 Ry
     estimated scf accuracy    <       0.00002791 Ry

     total magnetization       =    -0.05 Bohr mag/cell
     absolute magnetization    =     0.28 Bohr mag/cell

     iteration # 89     ecut=    90.00 Ry     beta= 0.20
     Davidson diagonalization with overlap
     ethr =  2.32E-09,  avg # of iterations =  1.3

     negative rho (up, down):  1.616E-03 1.687E-03

     total cpu time spent up to now is     2794.3 secs

     total energy              =   -1546.25940998 Ry
     estimated scf accuracy    <       0.00002101 Ry

     total magnetization       =    -0.05 Bohr mag/cell
     absolute magnetization    =     0.28 Bohr mag/cell

     iteration # 90     ecut=    90.00 Ry     beta= 0.20
     Davidson diagonalization with overlap
     ethr =  2.32E-09,  avg # of iterations =  5.3

     negative rho (up, down):  1.615E-03 1.687E-03

     total cpu time spent up to now is     2835.3 secs

     total energy              =   -1546.25941113 Ry
     estimated scf accuracy    <       0.00005985 Ry

     total magnetization       =    -0.05 Bohr mag/cell
     absolute magnetization    =     0.30 Bohr mag/cell

     iteration # 91     ecut=    90.00 Ry     beta= 0.20
     Davidson diagonalization with overlap
     ethr =  2.32E-09,  avg # of iterations =  4.5

     negative rho (up, down):  1.616E-03 1.686E-03

     total cpu time spent up to now is     2869.7 secs

     total energy              =   -1546.25941090 Ry
     estimated scf accuracy    <       0.00002351 Ry

     total magnetization       =    -0.05 Bohr mag/cell
     absolute magnetization    =     0.30 Bohr mag/cell

     iteration # 92     ecut=    90.00 Ry     beta= 0.20
     Davidson diagonalization with overlap
     ethr =  2.32E-09,  avg # of iterations =  2.5

     negative rho (up, down):  1.616E-03 1.687E-03

     total cpu time spent up to now is     2899.3 secs

     total energy              =   -1546.25941051 Ry
     estimated scf accuracy    <       0.00003119 Ry

     total magnetization       =    -0.05 Bohr mag/cell
     absolute magnetization    =     0.30 Bohr mag/cell

     iteration # 93     ecut=    90.00 Ry     beta= 0.20
     Davidson diagonalization with overlap
     ethr =  2.32E-09,  avg # of iterations =  4.9

     negative rho (up, down):  1.618E-03 1.684E-03

     total cpu time spent up to now is     2935.9 secs

     total energy              =   -1546.25940314 Ry
     estimated scf accuracy    <       0.00004254 Ry

     total magnetization       =    -0.05 Bohr mag/cell
     absolute magnetization    =     0.30 Bohr mag/cell

     iteration # 94     ecut=    90.00 Ry     beta= 0.20
     Davidson diagonalization with overlap
     ethr =  2.32E-09,  avg # of iterations =  4.3

     negative rho (up, down):  1.612E-03 1.690E-03

     total cpu time spent up to now is     2972.8 secs

     total energy              =   -1546.25941344 Ry
     estimated scf accuracy    <       0.00005078 Ry

     total magnetization       =    -0.05 Bohr mag/cell
     absolute magnetization    =     0.28 Bohr mag/cell

     iteration # 95     ecut=    90.00 Ry     beta= 0.20
     Davidson diagonalization with overlap
     ethr =  2.32E-09,  avg # of iterations =  5.5

     negative rho (up, down):  1.612E-03 1.690E-03

     total cpu time spent up to now is     3017.4 secs

     total energy              =   -1546.25942107 Ry
     estimated scf accuracy    <       0.00003254 Ry

     total magnetization       =    -0.06 Bohr mag/cell
     absolute magnetization    =     0.33 Bohr mag/cell

     iteration # 96     ecut=    90.00 Ry     beta= 0.20
     Davidson diagonalization with overlap
     ethr =  2.32E-09,  avg # of iterations =  1.5

     negative rho (up, down):  1.612E-03 1.690E-03

     total cpu time spent up to now is     3044.4 secs

     total energy              =   -1546.25942111 Ry
     estimated scf accuracy    <       0.00003181 Ry

     total magnetization       =    -0.06 Bohr mag/cell
     absolute magnetization    =     0.33 Bohr mag/cell

     iteration # 97     ecut=    90.00 Ry     beta= 0.20
     Davidson diagonalization with overlap
     ethr =  2.32E-09,  avg # of iterations =  2.3

     negative rho (up, down):  1.611E-03 1.691E-03

     total cpu time spent up to now is     3074.1 secs

     total energy              =   -1546.25942170 Ry
     estimated scf accuracy    <       0.00003349 Ry

     total magnetization       =    -0.06 Bohr mag/cell
     absolute magnetization    =     0.33 Bohr mag/cell

     iteration # 98     ecut=    90.00 Ry     beta= 0.20
     Davidson diagonalization with overlap
     ethr =  2.32E-09,  avg # of iterations =  3.8

     negative rho (up, down):  1.611E-03 1.691E-03

     total cpu time spent up to now is     3105.9 secs

     total energy              =   -1546.25942215 Ry
     estimated scf accuracy    <       0.00003887 Ry

     total magnetization       =    -0.06 Bohr mag/cell
     absolute magnetization    =     0.33 Bohr mag/cell

     iteration # 99     ecut=    90.00 Ry     beta= 0.20
     Davidson diagonalization with overlap
     ethr =  2.32E-09,  avg # of iterations =  2.5

     negative rho (up, down):  1.609E-03 1.694E-03

     total cpu time spent up to now is     3134.9 secs

     total energy              =   -1546.25942691 Ry
     estimated scf accuracy    <       0.00003243 Ry

     total magnetization       =    -0.06 Bohr mag/cell
     absolute magnetization    =     0.33 Bohr mag/cell

     iteration #100     ecut=    90.00 Ry     beta= 0.20
     Davidson diagonalization with overlap
     ethr =  2.32E-09,  avg # of iterations =  5.7

     negative rho (up, down):  1.608E-03 1.694E-03

     total cpu time spent up to now is     3181.2 secs

     total energy              =   -1546.25942772 Ry
     estimated scf accuracy    <       0.00013928 Ry

     total magnetization       =    -0.06 Bohr mag/cell
     absolute magnetization    =     0.35 Bohr mag/cell

     iteration #101     ecut=    90.00 Ry     beta= 0.20
     Davidson diagonalization with overlap
     ethr =  2.32E-09,  avg # of iterations =  5.3

     negative rho (up, down):  1.608E-03 1.694E-03

     total cpu time spent up to now is     3224.2 secs

     total energy              =   -1546.25943132 Ry
     estimated scf accuracy    <       0.00003460 Ry

     total magnetization       =    -0.06 Bohr mag/cell
     absolute magnetization    =     0.36 Bohr mag/cell

     iteration #102     ecut=    90.00 Ry     beta= 0.20
     Davidson diagonalization with overlap
     ethr =  2.32E-09,  avg # of iterations =  1.3

     negative rho (up, down):  1.608E-03 1.694E-03

     total cpu time spent up to now is     3250.9 secs

     total energy              =   -1546.25943194 Ry
     estimated scf accuracy    <       0.00003884 Ry

     total magnetization       =    -0.06 Bohr mag/cell
     absolute magnetization    =     0.36 Bohr mag/cell

     iteration #103     ecut=    90.00 Ry     beta= 0.20
     Davidson diagonalization with overlap
     ethr =  2.32E-09,  avg # of iterations =  4.0

     negative rho (up, down):  1.608E-03 1.694E-03

     total cpu time spent up to now is     3284.1 secs

     total energy              =   -1546.25943227 Ry
     estimated scf accuracy    <       0.00004850 Ry

     total magnetization       =    -0.06 Bohr mag/cell
     absolute magnetization    =     0.36 Bohr mag/cell

     iteration #104     ecut=    90.00 Ry     beta= 0.20
     Davidson diagonalization with overlap
     ethr =  2.32E-09,  avg # of iterations =  2.9

     negative rho (up, down):  1.605E-03 1.697E-03

     total cpu time spent up to now is     3314.5 secs

     total energy              =   -1546.25943791 Ry
     estimated scf accuracy    <       0.00004004 Ry

     total magnetization       =    -0.06 Bohr mag/cell
     absolute magnetization    =     0.36 Bohr mag/cell

     iteration #105     ecut=    90.00 Ry     beta= 0.20
     Davidson diagonalization with overlap
     ethr =  2.32E-09,  avg # of iterations =  6.3

     negative rho (up, down):  1.605E-03 1.697E-03

     total cpu time spent up to now is     3362.6 secs

     total energy              =   -1546.25943876 Ry
     estimated scf accuracy    <       0.00015596 Ry

     total magnetization       =    -0.07 Bohr mag/cell
     absolute magnetization    =     0.38 Bohr mag/cell

     iteration #106     ecut=    90.00 Ry     beta= 0.20
     Davidson diagonalization with overlap
     ethr =  2.32E-09,  avg # of iterations =  5.4

     negative rho (up, down):  1.610E-03 1.693E-03

     total cpu time spent up to now is     3405.8 secs

     total energy              =   -1546.25942382 Ry
     estimated scf accuracy    <       0.00003480 Ry

     total magnetization       =    -0.07 Bohr mag/cell
     absolute magnetization    =     0.39 Bohr mag/cell

     iteration #107     ecut=    90.00 Ry     beta= 0.20
     Davidson diagonalization with overlap
     ethr =  2.32E-09,  avg # of iterations =  5.6

     negative rho (up, down):  1.607E-03 1.695E-03

     total cpu time spent up to now is     3452.0 secs

     total energy              =   -1546.25942944 Ry
     estimated scf accuracy    <       0.00009499 Ry

     total magnetization       =    -0.06 Bohr mag/cell
     absolute magnetization    =     0.35 Bohr mag/cell

     iteration #108     ecut=    90.00 Ry     beta= 0.20
     Davidson diagonalization with overlap
     ethr =  2.32E-09,  avg # of iterations =  6.5

     negative rho (up, down):  1.611E-03 1.692E-03

     total cpu time spent up to now is     3501.5 secs

     total energy              =   -1546.25941942 Ry
     estimated scf accuracy    <       0.00013092 Ry

     total magnetization       =    -0.06 Bohr mag/cell
     absolute magnetization    =     0.37 Bohr mag/cell

     iteration #109     ecut=    90.00 Ry     beta= 0.20
     Davidson diagonalization with overlap
     ethr =  2.32E-09,  avg # of iterations =  6.6

     negative rho (up, down):  1.602E-03 1.700E-03

     total cpu time spent up to now is     3550.4 secs

     total energy              =   -1546.25943685 Ry
     estimated scf accuracy    <       0.00012121 Ry

     total magnetization       =    -0.06 Bohr mag/cell
     absolute magnetization    =     0.34 Bohr mag/cell

     iteration #110     ecut=    90.00 Ry     beta= 0.20
     Davidson diagonalization with overlap
     ethr =  2.32E-09,  avg # of iterations =  7.1

     negative rho (up, down):  1.603E-03 1.700E-03

     total cpu time spent up to now is     3601.7 secs

     total energy              =   -1546.25944925 Ry
     estimated scf accuracy    <       0.00004998 Ry

     total magnetization       =    -0.07 Bohr mag/cell
     absolute magnetization    =     0.41 Bohr mag/cell

     iteration #111     ecut=    90.00 Ry     beta= 0.20
     Davidson diagonalization with overlap
     ethr =  2.32E-09,  avg # of iterations =  1.3

     negative rho (up, down):  1.603E-03 1.700E-03

     total cpu time spent up to now is     3628.3 secs

     total energy              =   -1546.25944904 Ry
     estimated scf accuracy    <       0.00004701 Ry

     total magnetization       =    -0.07 Bohr mag/cell
     absolute magnetization    =     0.41 Bohr mag/cell

     iteration #112     ecut=    90.00 Ry     beta= 0.20
     Davidson diagonalization with overlap
     ethr =  2.32E-09,  avg # of iterations =  1.0

     negative rho (up, down):  1.602E-03 1.701E-03

     total cpu time spent up to now is     3654.2 secs

     total energy              =   -1546.25945183 Ry
     estimated scf accuracy    <       0.00004631 Ry

     total magnetization       =    -0.07 Bohr mag/cell
     absolute magnetization    =     0.41 Bohr mag/cell

     iteration #113     ecut=    90.00 Ry     beta= 0.20
     Davidson diagonalization with overlap
     ethr =  2.32E-09,  avg # of iterations =  5.1

     negative rho (up, down):  1.601E-03 1.701E-03

     total cpu time spent up to now is     3695.4 secs

     total energy              =   -1546.25945340 Ry
     estimated scf accuracy    <       0.00007610 Ry

     total magnetization       =    -0.07 Bohr mag/cell
     absolute magnetization    =     0.41 Bohr mag/cell

     iteration #114     ecut=    90.00 Ry     beta= 0.20
     Davidson diagonalization with overlap
     ethr =  2.32E-09,  avg # of iterations =  5.3

     negative rho (up, down):  1.599E-03 1.703E-03

     total cpu time spent up to now is     3737.3 secs

     total energy              =   -1546.25945961 Ry
     estimated scf accuracy    <       0.00007516 Ry

     total magnetization       =    -0.07 Bohr mag/cell
     absolute magnetization    =     0.42 Bohr mag/cell

     iteration #115     ecut=    90.00 Ry     beta= 0.20
     Davidson diagonalization with overlap
     ethr =  2.32E-09,  avg # of iterations =  6.1

     negative rho (up, down):  1.598E-03 1.704E-03

     total cpu time spent up to now is     3785.0 secs

     total energy              =   -1546.25946132 Ry
     estimated scf accuracy    <       0.00016678 Ry

     total magnetization       =    -0.07 Bohr mag/cell
     absolute magnetization    =     0.44 Bohr mag/cell

     iteration #116     ecut=    90.00 Ry     beta= 0.20
     Davidson diagonalization with overlap
     ethr =  2.32E-09,  avg # of iterations =  5.5

     negative rho (up, down):  1.629E-03 1.674E-03

     total cpu time spent up to now is     3828.2 secs

     total energy              =   -1546.25926225 Ry
     estimated scf accuracy    <       0.00004545 Ry

     total magnetization       =    -0.08 Bohr mag/cell
     absolute magnetization    =     0.44 Bohr mag/cell

     iteration #117     ecut=    90.00 Ry     beta= 0.20
     Davidson diagonalization with overlap
     ethr =  2.32E-09,  avg # of iterations =  8.3

     negative rho (up, down):  1.598E-03 1.704E-03

     total cpu time spent up to now is     3893.4 secs

     total energy              =   -1546.25932933 Ry
     estimated scf accuracy    <       0.00021638 Ry

     total magnetization       =    -0.03 Bohr mag/cell
     absolute magnetization    =     0.19 Bohr mag/cell

     iteration #118     ecut=    90.00 Ry     beta= 0.20
     Davidson diagonalization with overlap
     ethr =  2.32E-09,  avg # of iterations =  8.9

     negative rho (up, down):  1.614E-03 1.688E-03

     total cpu time spent up to now is     3960.8 secs

     total energy              =   -1546.25938035 Ry
     estimated scf accuracy    <       0.00012750 Ry

     total magnetization       =    -0.07 Bohr mag/cell
     absolute magnetization    =     0.44 Bohr mag/cell

     iteration #119     ecut=    90.00 Ry     beta= 0.20
     Davidson diagonalization with overlap
     ethr =  2.32E-09,  avg # of iterations =  7.9

     negative rho (up, down):  1.615E-03 1.687E-03

     total cpu time spent up to now is     4020.3 secs

     total energy              =   -1546.25940390 Ry
     estimated scf accuracy    <       0.00016811 Ry

     total magnetization       =    -0.05 Bohr mag/cell
     absolute magnetization    =     0.31 Bohr mag/cell

     iteration #120     ecut=    90.00 Ry     beta= 0.20
     Davidson diagonalization with overlap
     ethr =  2.32E-09,  avg # of iterations =  8.1

     negative rho (up, down):  1.644E-03 1.659E-03

     total cpu time spent up to now is     4075.9 secs

     total energy              =   -1546.25925438 Ry
     estimated scf accuracy    <       0.00021864 Ry

     total magnetization       =    -0.05 Bohr mag/cell
     absolute magnetization    =     0.30 Bohr mag/cell

     iteration #121     ecut=    90.00 Ry     beta= 0.20
     Davidson diagonalization with overlap
     ethr =  2.32E-09,  avg # of iterations =  8.3

     negative rho (up, down):  1.617E-03 1.685E-03

     total cpu time spent up to now is     4141.1 secs

     total energy              =   -1546.25930712 Ry
     estimated scf accuracy    <       0.00008286 Ry

     total magnetization       =    -0.01 Bohr mag/cell
     absolute magnetization    =     0.06 Bohr mag/cell

     iteration #122     ecut=    90.00 Ry     beta= 0.20
     Davidson diagonalization with overlap
     ethr =  2.32E-09,  avg # of iterations =  8.4

     negative rho (up, down):  1.641E-03 1.661E-03

     total cpu time spent up to now is     4205.6 secs

     total energy              =   -1546.25929195 Ry
     estimated scf accuracy    <       0.00010472 Ry

     total magnetization       =    -0.05 Bohr mag/cell
     absolute magnetization    =     0.28 Bohr mag/cell

     iteration #123     ecut=    90.00 Ry     beta= 0.20
     Davidson diagonalization with overlap
     ethr =  2.32E-09,  avg # of iterations =  7.7

     negative rho (up, down):  1.639E-03 1.664E-03

     total cpu time spent up to now is     4265.6 secs

     total energy              =   -1546.25936862 Ry
     estimated scf accuracy    <       0.00001339 Ry

     total magnetization       =    -0.01 Bohr mag/cell
     absolute magnetization    =     0.08 Bohr mag/cell

     iteration #124     ecut=    90.00 Ry     beta= 0.20
     Davidson diagonalization with overlap
     ethr =  2.32E-09,  avg # of iterations =  7.1

     negative rho (up, down):  1.644E-03 1.659E-03

     total cpu time spent up to now is     4316.1 secs

     total energy              =   -1546.25936045 Ry
     estimated scf accuracy    <       0.00016263 Ry

     total magnetization       =    -0.02 Bohr mag/cell
     absolute magnetization    =     0.10 Bohr mag/cell

     iteration #125     ecut=    90.00 Ry     beta= 0.20
     Davidson diagonalization with overlap
     ethr =  2.32E-09,  avg # of iterations =  6.6

     negative rho (up, down):  1.645E-03 1.657E-03

     total cpu time spent up to now is     4365.5 secs

     total energy              =   -1546.25936689 Ry
     estimated scf accuracy    <       0.00002039 Ry

     total magnetization       =    -0.01 Bohr mag/cell
     absolute magnetization    =     0.07 Bohr mag/cell

     iteration #126     ecut=    90.00 Ry     beta= 0.20
     Davidson diagonalization with overlap
     ethr =  2.32E-09,  avg # of iterations =  5.4

     negative rho (up, down):  1.645E-03 1.657E-03

     total cpu time spent up to now is     4404.3 secs

     total energy              =   -1546.25936711 Ry
     estimated scf accuracy    <       0.00002029 Ry

     total magnetization       =    -0.01 Bohr mag/cell
     absolute magnetization    =     0.05 Bohr mag/cell

     iteration #127     ecut=    90.00 Ry     beta= 0.20
     Davidson diagonalization with overlap
     ethr =  2.32E-09,  avg # of iterations =  4.0

     negative rho (up, down):  1.645E-03 1.658E-03

     total cpu time spent up to now is     4436.4 secs

     total energy              =   -1546.25936754 Ry
     estimated scf accuracy    <       0.00000223 Ry

     total magnetization       =    -0.01 Bohr mag/cell
     absolute magnetization    =     0.05 Bohr mag/cell

     iteration #128     ecut=    90.00 Ry     beta= 0.20
     Davidson diagonalization with overlap
     ethr =  1.92E-09,  avg # of iterations =  5.8

     negative rho (up, down):  1.645E-03 1.657E-03

     total cpu time spent up to now is     4478.1 secs

     total energy              =   -1546.25936699 Ry
     estimated scf accuracy    <       0.00003478 Ry

     total magnetization       =    -0.01 Bohr mag/cell
     absolute magnetization    =     0.06 Bohr mag/cell

     iteration #129     ecut=    90.00 Ry     beta= 0.20
     Davidson diagonalization with overlap
     ethr =  1.92E-09,  avg # of iterations =  5.3

     negative rho (up, down):  1.645E-03 1.658E-03

     total cpu time spent up to now is     4513.9 secs

     total energy              =   -1546.25936804 Ry
     estimated scf accuracy    <       0.00000105 Ry

     total magnetization       =    -0.01 Bohr mag/cell
     absolute magnetization    =     0.05 Bohr mag/cell

     iteration #130     ecut=    90.00 Ry     beta= 0.20
     Davidson diagonalization with overlap
     ethr =  9.08E-10,  avg # of iterations =  1.8

     negative rho (up, down):  1.645E-03 1.658E-03

     total cpu time spent up to now is     4542.1 secs

     total energy              =   -1546.25936808 Ry
     estimated scf accuracy    <       0.00000106 Ry

     total magnetization       =    -0.01 Bohr mag/cell
     absolute magnetization    =     0.05 Bohr mag/cell

     iteration #131     ecut=    90.00 Ry     beta= 0.20
     Davidson diagonalization with overlap
     ethr =  9.08E-10,  avg # of iterations =  1.2

     negative rho (up, down):  1.645E-03 1.658E-03

     total cpu time spent up to now is     4568.3 secs

     total energy              =   -1546.25936810 Ry
     estimated scf accuracy    <       0.00000100 Ry

     total magnetization       =    -0.01 Bohr mag/cell
     absolute magnetization    =     0.05 Bohr mag/cell

     iteration #132     ecut=    90.00 Ry     beta= 0.20
     Davidson diagonalization with overlap
     ethr =  8.64E-10,  avg # of iterations =  1.1

     negative rho (up, down):  1.644E-03 1.658E-03

     total cpu time spent up to now is     4594.5 secs

     total energy              =   -1546.25936838 Ry
     estimated scf accuracy    <       0.00000090 Ry

     total magnetization       =    -0.01 Bohr mag/cell
     absolute magnetization    =     0.05 Bohr mag/cell

     iteration #133     ecut=    90.00 Ry     beta= 0.20
     Davidson diagonalization with overlap
     ethr =  7.72E-10,  avg # of iterations =  2.7

     negative rho (up, down):  1.644E-03 1.658E-03

     total cpu time spent up to now is     4624.3 secs

     total energy              =   -1546.25936846 Ry
     estimated scf accuracy    <       0.00000188 Ry

     total magnetization       =    -0.01 Bohr mag/cell
     absolute magnetization    =     0.06 Bohr mag/cell

     iteration #134     ecut=    90.00 Ry     beta= 0.20
     Davidson diagonalization with overlap
     ethr =  7.72E-10,  avg # of iterations =  1.2

     negative rho (up, down):  1.644E-03 1.658E-03

     total cpu time spent up to now is     4650.6 secs

     total energy              =   -1546.25936847 Ry
     estimated scf accuracy    <       0.00000107 Ry

     total magnetization       =    -0.01 Bohr mag/cell
     absolute magnetization    =     0.06 Bohr mag/cell

     iteration #135     ecut=    90.00 Ry     beta= 0.20
     Davidson diagonalization with overlap
     ethr =  7.72E-10,  avg # of iterations =  1.2

     negative rho (up, down):  1.644E-03 1.658E-03

     total cpu time spent up to now is     4677.1 secs

     total energy              =   -1546.25936847 Ry
     estimated scf accuracy    <       0.00000140 Ry

     total magnetization       =    -0.01 Bohr mag/cell
     absolute magnetization    =     0.06 Bohr mag/cell

     iteration #136     ecut=    90.00 Ry     beta= 0.20
     Davidson diagonalization with overlap
     ethr =  7.72E-10,  avg # of iterations =  1.0

     negative rho (up, down):  1.644E-03 1.658E-03

     total cpu time spent up to now is     4702.8 secs

     total energy              =   -1546.25936849 Ry
     estimated scf accuracy    <       0.00000108 Ry

     total magnetization       =    -0.01 Bohr mag/cell
     absolute magnetization    =     0.06 Bohr mag/cell

     iteration #137     ecut=    90.00 Ry     beta= 0.20
     Davidson diagonalization with overlap
     ethr =  7.72E-10,  avg # of iterations =  1.0

     negative rho (up, down):  1.643E-03 1.659E-03

     total cpu time spent up to now is     4728.5 secs

     total energy              =   -1546.25936870 Ry
     estimated scf accuracy    <       0.00000101 Ry

     total magnetization       =    -0.01 Bohr mag/cell
     absolute magnetization    =     0.06 Bohr mag/cell

     iteration #138     ecut=    90.00 Ry     beta= 0.20
     Davidson diagonalization with overlap
     ethr =  7.72E-10,  avg # of iterations =  2.7

     negative rho (up, down):  1.643E-03 1.659E-03

     total cpu time spent up to now is     4758.1 secs

     total energy              =   -1546.25936872 Ry
     estimated scf accuracy    <       0.00000300 Ry

     total magnetization       =    -0.01 Bohr mag/cell
     absolute magnetization    =     0.07 Bohr mag/cell

     iteration #139     ecut=    90.00 Ry     beta= 0.20
     Davidson diagonalization with overlap
     ethr =  7.72E-10,  avg # of iterations =  1.3

     negative rho (up, down):  1.643E-03 1.659E-03

     total cpu time spent up to now is     4784.9 secs

     total energy              =   -1546.25936879 Ry
     estimated scf accuracy    <       0.00000187 Ry

     total magnetization       =    -0.01 Bohr mag/cell
     absolute magnetization    =     0.07 Bohr mag/cell

     iteration #140     ecut=    90.00 Ry     beta= 0.20
     Davidson diagonalization with overlap
     ethr =  7.72E-10,  avg # of iterations =  1.1

     negative rho (up, down):  1.644E-03 1.659E-03

     total cpu time spent up to now is     4811.0 secs

     total energy              =   -1546.25936870 Ry
     estimated scf accuracy    <       0.00000108 Ry

     total magnetization       =    -0.01 Bohr mag/cell
     absolute magnetization    =     0.07 Bohr mag/cell

     iteration #141     ecut=    90.00 Ry     beta= 0.20
     Davidson diagonalization with overlap
     ethr =  7.72E-10,  avg # of iterations =  1.0

     negative rho (up, down):  1.644E-03 1.658E-03

     total cpu time spent up to now is     4836.9 secs

     total energy              =   -1546.25936845 Ry
     estimated scf accuracy    <       0.00000144 Ry

     total magnetization       =    -0.01 Bohr mag/cell
     absolute magnetization    =     0.06 Bohr mag/cell

     iteration #142     ecut=    90.00 Ry     beta= 0.20
     Davidson diagonalization with overlap
     ethr =  7.72E-10,  avg # of iterations =  1.4

     negative rho (up, down):  1.643E-03 1.660E-03

     total cpu time spent up to now is     4864.1 secs

     total energy              =   -1546.25936895 Ry
     estimated scf accuracy    <       0.00000200 Ry

     total magnetization       =    -0.01 Bohr mag/cell
     absolute magnetization    =     0.06 Bohr mag/cell

     iteration #143     ecut=    90.00 Ry     beta= 0.20
     Davidson diagonalization with overlap
     ethr =  7.72E-10,  avg # of iterations =  2.3

     negative rho (up, down):  1.642E-03 1.660E-03

     total cpu time spent up to now is     4893.9 secs

     total energy              =   -1546.25936930 Ry
     estimated scf accuracy    <       0.00000114 Ry

     total magnetization       =    -0.01 Bohr mag/cell
     absolute magnetization    =     0.07 Bohr mag/cell

     iteration #144     ecut=    90.00 Ry     beta= 0.20
     Davidson diagonalization with overlap
     ethr =  7.72E-10,  avg # of iterations =  1.0

[...]

     total energy              =   -1546.49920407 Ry
     estimated scf accuracy    <       0.01451572 Ry

     total magnetization       =    -0.96 Bohr mag/cell
     absolute magnetization    =    21.13 Bohr mag/cell

     iteration #  4     ecut=    90.00 Ry     beta= 0.20
     Davidson diagonalization with overlap
     ethr =  1.25E-05,  avg # of iterations =  3.3

     negative rho (up, down):  0.000E+00 1.197E-02

     total cpu time spent up to now is   115474.3 secs

     total energy              =   -1546.50042316 Ry
     estimated scf accuracy    <       0.00644750 Ry

     total magnetization       =    -0.94 Bohr mag/cell
     absolute magnetization    =    21.15 Bohr mag/cell

     iteration #  5     ecut=    90.00 Ry     beta= 0.20
     Davidson diagonalization with overlap
     ethr =  5.56E-06,  avg # of iterations =  1.5

     negative rho (up, down):  0.000E+00 1.197E-02

     total cpu time spent up to now is   115501.8 secs

     total energy              =   -1546.50016310 Ry
     estimated scf accuracy    <       0.00502756 Ry

     total magnetization       =    -0.94 Bohr mag/cell
     absolute magnetization    =    21.17 Bohr mag/cell

     iteration #  6     ecut=    90.00 Ry     beta= 0.20
     Davidson diagonalization with overlap
     ethr =  4.33E-06,  avg # of iterations =  1.2

     negative rho (up, down):  0.000E+00 1.196E-02

     total cpu time spent up to now is   115528.2 secs

     total energy              =   -1546.49924393 Ry
     estimated scf accuracy    <       0.00341465 Ry

     total magnetization       =    -0.93 Bohr mag/cell
     absolute magnetization    =    21.20 Bohr mag/cell

     iteration #  7     ecut=    90.00 Ry     beta= 0.20
     Davidson diagonalization with overlap
     ethr =  2.94E-06,  avg # of iterations =  2.7

     negative rho (up, down):  0.000E+00 1.194E-02

     total cpu time spent up to now is   115561.7 secs

     total energy              =   -1546.49963364 Ry
     estimated scf accuracy    <       0.00042131 Ry

     total magnetization       =    -0.92 Bohr mag/cell
     absolute magnetization    =    21.25 Bohr mag/cell

     iteration #  8     ecut=    90.00 Ry     beta= 0.20
     Davidson diagonalization with overlap
     ethr =  3.63E-07,  avg # of iterations =  5.1

     negative rho (up, down):  0.000E+00 1.194E-02

     total cpu time spent up to now is   115608.1 secs

     total energy              =   -1546.49977516 Ry
     estimated scf accuracy    <       0.00234658 Ry

     total magnetization       =    -0.92 Bohr mag/cell
     absolute magnetization    =    21.20 Bohr mag/cell

     iteration #  9     ecut=    90.00 Ry     beta= 0.20
     Davidson diagonalization with overlap
     ethr =  3.63E-07,  avg # of iterations =  2.0

     negative rho (up, down):  0.000E+00 1.194E-02

     total cpu time spent up to now is   115637.6 secs

     total energy              =   -1546.49982342 Ry
     estimated scf accuracy    <       0.00032460 Ry

     total magnetization       =    -0.92 Bohr mag/cell
     absolute magnetization    =    21.22 Bohr mag/cell

     iteration # 10     ecut=    90.00 Ry     beta= 0.20
     Davidson diagonalization with overlap
     ethr =  2.80E-07,  avg # of iterations =  1.2

     negative rho (up, down):  0.000E+00 1.194E-02

     total cpu time spent up to now is   115664.1 secs

     total energy              =   -1546.49982533 Ry
     estimated scf accuracy    <       0.00011355 Ry

     total magnetization       =    -0.92 Bohr mag/cell
     absolute magnetization    =    21.22 Bohr mag/cell

     iteration # 11     ecut=    90.00 Ry     beta= 0.20
     Davidson diagonalization with overlap
     ethr =  9.79E-08,  avg # of iterations =  2.9

     negative rho (up, down):  0.000E+00 1.193E-02

     total cpu time spent up to now is   115695.1 secs

     total energy              =   -1546.49982944 Ry
     estimated scf accuracy    <       0.00003265 Ry

     total magnetization       =    -0.92 Bohr mag/cell
     absolute magnetization    =    21.22 Bohr mag/cell

     iteration # 12     ecut=    90.00 Ry     beta= 0.20
     Davidson diagonalization with overlap
     ethr =  2.81E-08,  avg # of iterations =  4.2

     negative rho (up, down):  0.000E+00 1.192E-02

     total cpu time spent up to now is   115731.1 secs

     total energy              =   -1546.49983544 Ry
     estimated scf accuracy    <       0.00000569 Ry

     total magnetization       =    -0.92 Bohr mag/cell
     absolute magnetization    =    21.22 Bohr mag/cell

     iteration # 13     ecut=    90.00 Ry     beta= 0.20
     Davidson diagonalization with overlap
     ethr =  4.91E-09,  avg # of iterations =  4.5

     negative rho (up, down):  0.000E+00 1.191E-02

     total cpu time spent up to now is   115769.3 secs

     total energy              =   -1546.49983786 Ry
     estimated scf accuracy    <       0.00000554 Ry

     total magnetization       =    -0.92 Bohr mag/cell
     absolute magnetization    =    21.21 Bohr mag/cell

     iteration # 14     ecut=    90.00 Ry     beta= 0.20
     Davidson diagonalization with overlap
     ethr =  4.78E-09,  avg # of iterations =  1.0

     negative rho (up, down):  0.000E+00 1.190E-02

     total cpu time spent up to now is   115794.9 secs

     total energy              =   -1546.49983844 Ry
     estimated scf accuracy    <       0.00000394 Ry

     total magnetization       =    -0.93 Bohr mag/cell
     absolute magnetization    =    21.20 Bohr mag/cell

     iteration # 15     ecut=    90.00 Ry     beta= 0.20
     Davidson diagonalization with overlap
     ethr =  3.40E-09,  avg # of iterations =  1.9

     negative rho (up, down):  0.000E+00 1.189E-02

     total cpu time spent up to now is   115823.9 secs

     total energy              =   -1546.49983981 Ry
     estimated scf accuracy    <       0.00000368 Ry

     total magnetization       =    -0.93 Bohr mag/cell
     absolute magnetization    =    21.20 Bohr mag/cell

     iteration # 16     ecut=    90.00 Ry     beta= 0.20
     Davidson diagonalization with overlap
     ethr =  3.17E-09,  avg # of iterations =  1.8

     negative rho (up, down):  0.000E+00 1.187E-02

     total cpu time spent up to now is   115852.1 secs

     total energy              =   -1546.49984113 Ry
     estimated scf accuracy    <       0.00000158 Ry

     total magnetization       =    -0.93 Bohr mag/cell
     absolute magnetization    =    21.20 Bohr mag/cell

     iteration # 17     ecut=    90.00 Ry     beta= 0.20
     Davidson diagonalization with overlap
     ethr =  1.36E-09,  avg # of iterations =  5.0

     negative rho (up, down):  0.000E+00 1.186E-02

     total cpu time spent up to now is   115895.3 secs

     total energy              =   -1546.49984216 Ry
     estimated scf accuracy    <       0.00000364 Ry

     total magnetization       =    -0.93 Bohr mag/cell
     absolute magnetization    =    21.18 Bohr mag/cell

     iteration # 18     ecut=    90.00 Ry     beta= 0.20
     Davidson diagonalization with overlap
     ethr =  1.36E-09,  avg # of iterations =  2.8

     negative rho (up, down):  0.000E+00 1.186E-02

     total cpu time spent up to now is   115928.1 secs

     total energy              =   -1546.49984255 Ry
     estimated scf accuracy    <       0.00000069 Ry

     total magnetization       =    -0.93 Bohr mag/cell
     absolute magnetization    =    21.18 Bohr mag/cell

     iteration # 19     ecut=    90.00 Ry     beta= 0.20
     Davidson diagonalization with overlap
     ethr =  5.92E-10,  avg # of iterations =  1.5

     negative rho (up, down):  0.000E+00 1.186E-02

     total cpu time spent up to now is   115955.6 secs

     total energy              =   -1546.49984269 Ry
     estimated scf accuracy    <       0.00000052 Ry

     total magnetization       =    -0.93 Bohr mag/cell
     absolute magnetization    =    21.18 Bohr mag/cell

     iteration # 20     ecut=    90.00 Ry     beta= 0.20
     Davidson diagonalization with overlap
     ethr =  4.52E-10,  avg # of iterations =  1.9

     negative rho (up, down):  0.000E+00 1.185E-02

     total cpu time spent up to now is   115984.7 secs

     total energy              =   -1546.49984283 Ry
     estimated scf accuracy    <       0.00000052 Ry

     total magnetization       =    -0.93 Bohr mag/cell
     absolute magnetization    =    21.18 Bohr mag/cell

     iteration # 21     ecut=    90.00 Ry     beta= 0.20
     Davidson diagonalization with overlap
     ethr =  4.52E-10,  avg # of iterations =  2.8

     negative rho (up, down):  0.000E+00 1.185E-02

     total cpu time spent up to now is   116016.9 secs

     total energy              =   -1546.49984298 Ry
     estimated scf accuracy    <       0.00000018 Ry

     total magnetization       =    -0.93 Bohr mag/cell
     absolute magnetization    =    21.17 Bohr mag/cell

     iteration # 22     ecut=    90.00 Ry     beta= 0.20
     Davidson diagonalization with overlap
     ethr =  1.58E-10,  avg # of iterations =  5.0

     negative rho (up, down):  0.000E+00 1.184E-02

     total cpu time spent up to now is   116063.0 secs

     total energy              =   -1546.49984310 Ry
     estimated scf accuracy    <       0.00000018 Ry

     total magnetization       =    -0.93 Bohr mag/cell
     absolute magnetization    =    21.17 Bohr mag/cell

     iteration # 23     ecut=    90.00 Ry     beta= 0.20
     Davidson diagonalization with overlap
     ethr =  1.58E-10,  avg # of iterations =  1.5

     negative rho (up, down):  0.000E+00 1.184E-02

     total cpu time spent up to now is   116090.4 secs

     total energy              =   -1546.49984312 Ry
     estimated scf accuracy    <       0.00000016 Ry

     total magnetization       =    -0.93 Bohr mag/cell
     absolute magnetization    =    21.17 Bohr mag/cell

     iteration # 24     ecut=    90.00 Ry     beta= 0.20
     Davidson diagonalization with overlap
     ethr =  1.38E-10,  avg # of iterations =  1.4

     negative rho (up, down):  0.000E+00 1.184E-02

     total cpu time spent up to now is   116117.7 secs

     total energy              =   -1546.49984313 Ry
     estimated scf accuracy    <       0.00000011 Ry

     total magnetization       =    -0.93 Bohr mag/cell
     absolute magnetization    =    21.17 Bohr mag/cell

     iteration # 25     ecut=    90.00 Ry     beta= 0.20
     Davidson diagonalization with overlap
     ethr =  9.64E-11,  avg # of iterations =  5.0

     negative rho (up, down):  0.000E+00 1.184E-02

     total cpu time spent up to now is   116160.6 secs

     total energy              =   -1546.49984318 Ry
     estimated scf accuracy    <       0.00000013 Ry

     total magnetization       =    -0.93 Bohr mag/cell
     absolute magnetization    =    21.16 Bohr mag/cell

     iteration # 26     ecut=    90.00 Ry     beta= 0.20
     Davidson diagonalization with overlap
     ethr =  9.64E-11,  avg # of iterations =  2.3

     negative rho (up, down):  0.000E+00 1.184E-02

     total cpu time spent up to now is   116191.2 secs

     total energy              =   -1546.49984320 Ry
     estimated scf accuracy    <       0.00000003 Ry

     total magnetization       =    -0.93 Bohr mag/cell
     absolute magnetization    =    21.16 Bohr mag/cell

     iteration # 27     ecut=    90.00 Ry     beta= 0.20
     Davidson diagonalization with overlap
     ethr =  2.40E-11,  avg # of iterations =  2.9

     negative rho (up, down):  0.000E+00 1.184E-02

     total cpu time spent up to now is   116224.0 secs

     total energy              =   -1546.49984321 Ry
     estimated scf accuracy    <       0.00000003 Ry

     total magnetization       =    -0.93 Bohr mag/cell
     absolute magnetization    =    21.16 Bohr mag/cell

     iteration # 28     ecut=    90.00 Ry     beta= 0.20
     Davidson diagonalization with overlap
     ethr =  2.40E-11,  avg # of iterations =  1.9

     negative rho (up, down):  0.000E+00 1.184E-02

     total cpu time spent up to now is   116252.6 secs

     total energy              =   -1546.49984322 Ry
     estimated scf accuracy    <       0.00000001 Ry

     total magnetization       =    -0.93 Bohr mag/cell
     absolute magnetization    =    21.16 Bohr mag/cell

     iteration # 29     ecut=    90.00 Ry     beta= 0.20
     Davidson diagonalization with overlap
     ethr =  9.48E-12,  avg # of iterations =  2.6

     negative rho (up, down):  0.000E+00 1.184E-02

     total cpu time spent up to now is   116285.7 secs

     total energy              =   -1546.49984323 Ry
     estimated scf accuracy    <       0.00000001 Ry

     total magnetization       =    -0.93 Bohr mag/cell
     absolute magnetization    =    21.16 Bohr mag/cell

     iteration # 30     ecut=    90.00 Ry     beta= 0.20
     Davidson diagonalization with overlap
     ethr =  9.48E-12,  avg # of iterations =  2.2

     negative rho (up, down):  0.000E+00 1.184E-02

     Magnetic moment per site:
     atom:    1    charge:   12.7049    magn:   -2.4960    constr:    0.0000
     atom:    2    charge:   11.5718    magn:    2.1258    constr:    0.0000
     atom:    3    charge:   12.7023    magn:   -2.4795    constr:    0.0000
     atom:    4    charge:   11.5695    magn:    2.1532    constr:    0.0000
     atom:    5    charge:   12.6864    magn:   -2.5976    constr:    0.0000
     atom:    6    charge:   11.5867    magn:    2.1333    constr:    0.0000
     atom:    7    charge:   12.7164    magn:   -2.4912    constr:    0.0000
     atom:    8    charge:   11.5691    magn:    2.1265    constr:    0.0000

     total cpu time spent up to now is   116317.0 secs

     End of self-consistent calculation

     Number of k-points >= 100: set verbosity='high' to print the bands.

     the Fermi energy is    15.3847 ev

!    total energy              =   -1546.49984323 Ry
     estimated scf accuracy    <          6.0E-09 Ry
     smearing contrib. (-TS)   =      -0.00452571 Ry
     internal energy E=F+TS    =   -1546.49531751 Ry

     total magnetization       =    -0.93 Bohr mag/cell
     absolute magnetization    =    21.16 Bohr mag/cell

     convergence has been achieved in  30 iterations

     negative rho (up, down):  0.000E+00 1.184E-02

     Forces acting on atoms (cartesian axes, Ry/au):

     atom    1 type  1   force =    -0.01802943   -0.02802358   -0.01736944
     atom    2 type  2   force =     0.03095397    0.01961618    0.01234008
     atom    3 type  1   force =     0.01792798   -0.01276753    0.02919350
     atom    4 type  2   force =    -0.00028934    0.02684503   -0.02460151
     atom    5 type  1   force =    -0.02512122    0.01702609   -0.00261910
     atom    6 type  2   force =     0.01347652   -0.01198831   -0.00668775
     atom    7 type  1   force =     0.01869960    0.02644016   -0.00332444
     atom    8 type  2   force =    -0.03761809   -0.03714804    0.01306865

     Total force =     0.104372     Total SCF correction =     0.000140


     Computing stress (Cartesian axis) and pressure


     negative rho (up, down):  0.000E+00 1.184E-02
          total   stress  (Ry/bohr**3)                   (kbar)     P=      -45.60
  -0.00029554   0.00002756   0.00005917          -43.48        4.05        8.70
   0.00002756  -0.00031047  -0.00007741            4.05      -45.67      -11.39
   0.00005917  -0.00007741  -0.00032402            8.70      -11.39      -47.66


     Entering Dynamics;  it =   102   time =  0.09772 pico-seconds

  new lattice vectors (alat unit) :
   1.045504785   0.008045250   0.004200012
   0.008045250   1.035285275  -0.002690663
   0.004200012  -0.002690663   1.052611914
  new unit-cell volume =    756.2561 (a.u.)^3
  new positions in cryst coord
Mn      -0.085245502   0.526464687  -0.000009633
Cr       0.515472013   0.057405221   0.418396646
Mn       0.012207146  -0.002869869   0.593172676
Cr       0.405467388   0.424990704  -0.008906662
Mn       0.564517312  -0.074747045  -0.078637899
Cr       0.013591544   0.490935012   0.484219025
Mn       0.506943185   0.555360944   0.491214595
Cr       0.067136188   0.022222220   0.100226503
  new positions in cart coord (alat unit)
Mn      -0.084889081   0.544355343  -0.001784712
Cr       0.541147566   0.062452116   0.442419825
Mn       0.015230873  -0.004468951   0.624439618
Cr       0.427299843   0.443272669  -0.008815797
Mn       0.589273913  -0.072631244  -0.080203090
Cr       0.020193445   0.507064266   0.508430859
Mn       0.536542650   0.577713799   0.517693213
Cr       0.070790941   0.023276789   0.105721791

     Ekin =     0.05963899 Ry    T =  684.2 K  Etot =    -1546.44019908
     new unit-cell volume =    756.25613 a.u.^3 (   112.06560 Ang^3 )
     density =      6.33801 g/cm^3

CELL_PARAMETERS (angstrom)
   4.826259190   0.037138482   0.019388096
   0.037138482   4.779083885  -0.012420639
   0.019388096  -0.012420639   4.859067118

ATOMIC_POSITIONS (angstrom)
Mn           -0.3918649750        2.5128531332       -0.0082385854
Cr            2.4980453957        0.2882914592        2.0422983947
Mn            0.0703087575       -0.0206295731        2.8825381632
Cr            1.9725015365        2.0462352932       -0.0406954843
Mn            2.7202062359       -0.3352803491       -0.3702335062
Cr            0.0932169812        2.3407100657        2.3470185303
Mn            2.4767881816        2.6668424391        2.3897754095
Cr            0.3267851431        0.1074503134        0.4880329336



     Maximum number of iterations reached, stopping

     init_run     :     13.85s CPU     14.74s WALL (       1 calls)
     electrons    : 109890.91s CPU 113919.73s WALL (     102 calls)
     update_pot   :    178.59s CPU    183.77s WALL (     101 calls)
     forces       :    701.86s CPU    745.13s WALL (     102 calls)
     stress       :   1306.08s CPU   1367.93s WALL (     102 calls)

     Called by init_run:
     wfcinit      :     11.10s CPU     11.49s WALL (       1 calls)
     potinit      :      0.52s CPU      0.58s WALL (       1 calls)
     hinit0       :      1.41s CPU      1.54s WALL (       1 calls)

     Called by electrons:
     c_bands      :  95375.48s CPU  97379.97s WALL (    3025 calls)
     sum_band     :  12053.79s CPU  13245.30s WALL (    3025 calls)
     v_of_rho     :    513.77s CPU    639.02s WALL (    3127 calls)
     newd         :   1903.14s CPU   2614.38s WALL (    3127 calls)
     mix_rho      :     55.31s CPU     67.13s WALL (    3025 calls)

     Called by c_bands:
     init_us_2    :   1198.57s CPU   1241.20s WALL (  788130 calls)
     cegterg      :  92446.84s CPU  94345.56s WALL (  381171 calls)

     Called by *egterg:
     cdiaghg      :  12768.48s CPU  12818.90s WALL ( 1772885 calls)
     h_psi        :  38554.28s CPU  39558.30s WALL ( 1785737 calls)
     s_psi        :   6175.83s CPU   6232.00s WALL ( 1785737 calls)
     g_psi        :    172.76s CPU    174.94s WALL ( 1404440 calls)

     Called by h_psi:
     h_psi:calbec :  10265.41s CPU  10722.88s WALL ( 1785737 calls)
     vloc_psi     :  20579.73s CPU  21027.54s WALL ( 1785737 calls)
     add_vuspsi   :   6911.53s CPU   6990.08s WALL ( 1785737 calls)

     General routines
     calbec       :  13700.60s CPU  14328.65s WALL ( 2231147 calls)
     fft          :    242.87s CPU    315.94s WALL (   82152 calls)
     ffts         :      9.20s CPU      9.37s WALL (   12304 calls)
     fftw         :  22467.83s CPU  22954.33s WALL (******** calls)
     interpolate  :     25.48s CPU     32.10s WALL (    6254 calls)

     Parallel routines
     fft_scatt_xy :   2224.02s CPU   2264.00s WALL (******** calls)
     fft_scatt_yz :   9951.43s CPU  10243.12s WALL (******** calls)

     PWSCF        :   1d 7h 9m CPU   1d 8h18m WALL


   This run was terminated on:  19:24:31  10Feb2022            

=------------------------------------------------------------------------------=
   JOB DONE.
=------------------------------------------------------------------------------=
Note: The following floating-point exceptions are signalling: IEEE_UNDERFLOW_FLAG IEEE_DENORMAL
