
     Program PWSCF v.6.7MaX starts on  8Dec2021 at 19:23:32 

     This program is part of the open-source Quantum ESPRESSO suite
     for quantum simulation of materials; please cite
         "P. Giannozzi et al., J. Phys.:Condens. Matter 21 395502 (2009);
         "P. Giannozzi et al., J. Phys.:Condens. Matter 29 465901 (2017);
          URL http://www.quantum-espresso.org", 
     in publications or presentations arising from this work. More details at
     http://www.quantum-espresso.org/quote

     Parallel version (MPI), running on    12 processors

     MPI processes distributed on     1 nodes
     R & G space division:  proc/nbgrp/npool/nimage =      12
     Reading input from Opt-B1-FeNi.in

     Current dimensions of program PWSCF are:
     Max number of different atomic species (ntypx) = 10
     Max number of k-points (npk) =  40000
     Max angular momentum in pseudopotentials (lmaxx) =  3
     file Fe.pbe-spn-kjpaw_psl.0.2.1.UPF: wavefunction(s)  3D renormalized

     Subspace diagonalization in iterative solution of the eigenvalue problem:
     a serial algorithm will be used


     Parallelization info
     --------------------
     sticks:   dense  smooth     PW     G-vecs:    dense   smooth      PW
     Min         139      46     15                 3813      731     140
     Max         140      47     16                 3816      735     143
     Sum        1675     559    187                45767     8801    1687



     bravais-lattice index     =            2
     lattice parameter (alat)  =       6.7381  a.u.
     unit-cell volume          =      76.4806 (a.u.)^3
     number of atoms/cell      =            2
     number of atomic types    =            2
     number of electrons       =        34.00
     number of Kohn-Sham states=           21
     kinetic-energy cutoff     =      90.0000  Ry
     charge density cutoff     =    1080.0000  Ry
     scf convergence threshold =      1.0E-08
     mixing beta               =       0.2000
     number of iterations used =            8  plain     mixing
     energy convergence thresh.=      1.0E-05
     force convergence thresh. =      1.0E-04
     press convergence thresh. =      1.0E-01
     Exchange-correlation= SLA  PW   PBX  PBC
                           (   1   4   3   4   0   0   0)
     nstep                     =          100


     celldm(1)=   6.738096  celldm(2)=   0.000000  celldm(3)=   0.000000
     celldm(4)=   0.000000  celldm(5)=   0.000000  celldm(6)=   0.000000

     crystal axes: (cart. coord. in units of alat)
               a(1) = (  -0.500000   0.000000   0.500000 )  
               a(2) = (   0.000000   0.500000   0.500000 )  
               a(3) = (  -0.500000   0.500000   0.000000 )  

     reciprocal axes: (cart. coord. in units 2 pi/alat)
               b(1) = ( -1.000000 -1.000000  1.000000 )  
               b(2) = (  1.000000  1.000000  1.000000 )  
               b(3) = ( -1.000000  1.000000 -1.000000 )  


     PseudoPot. # 1 for Ni read from file:
     /opt/QEpot/SSSP_efficiency_pseudos/ni_pbe_v1.4.uspp.F.UPF
     MD5 check sum: 1ee80287db30b12d2bc1f57a5b5d6409
     Pseudo is Ultrasoft + core correction, Zval = 18.0
     Generated by new atomic code, or converted to UPF format
     Using radial grid of  865 points,  6 beta functions with: 
                l(1) =   0
                l(2) =   0
                l(3) =   1
                l(4) =   1
                l(5) =   2
                l(6) =   2
     Q(r) pseudized with 10 coefficients,  rinner =    0.980   0.980   0.980
                                                       0.980   0.980

     PseudoPot. # 2 for Fe read from file:
     /opt/QEpot/SSSP_efficiency_pseudos/Fe.pbe-spn-kjpaw_psl.0.2.1.UPF
     MD5 check sum: e86618425769142926afa95317d90200
     Pseudo is Projector augmented-wave + core cor, Zval = 16.0
     Generated using "atomic" code by A. Dal Corso  v.5.0.99 svn rev. 10869
     Shape of augmentation charge: PSQ
     Using radial grid of 1191 points,  6 beta functions with: 
                l(1) =   0
                l(2) =   0
                l(3) =   1
                l(4) =   1
                l(5) =   2
                l(6) =   2
     Q(r) pseudized with 0 coefficients 


     atomic species   valence    mass     pseudopotential
        Ni            18.00    58.69300     Ni( 1.00)
        Fe            16.00    55.84500     Fe( 1.00)

     Starting magnetic structure 
     atomic species   magnetization
        Ni           0.200
        Fe           0.200

     No symmetry found



   Cartesian axes

     site n.     atom                  positions (alat units)
         1           Ni  tau(   1) = (   0.5000000   0.5000000   0.5000000  )
         2           Fe  tau(   2) = (   0.0000000   0.0000000   0.0000000  )

     number of k points=   504  Gaussian smearing, width (Ry)=  0.0100

     Number of k-points >= 100: set verbosity='high' to print them.

     Dense  grid:    45767 G-vectors     FFT dimensions: (  50,  50,  50)

     Smooth grid:     8801 G-vectors     FFT dimensions: (  30,  30,  30)

     Estimated max dynamical RAM per process >      55.98 MB

     Estimated total dynamical RAM >     671.72 MB

     Check: negative core charge=   -0.000014
     Generating pointlists ...
     new r_m :   0.2063 (alat units)  1.3897 (a.u.) for type    1
     new r_m :   0.2063 (alat units)  1.3897 (a.u.) for type    2

     Initial potential from superposition of free atoms

     starting charge   31.99956, renormalised to   34.00000
     Starting wfcs are   26 randomized atomic wfcs
     Checking if some PAW data can be deallocated... 

     total cpu time spent up to now is        4.7 secs

     Self-consistent Calculation

     iteration #  1     ecut=    90.00 Ry     beta= 0.20
     Davidson diagonalization with overlap
     ethr =  1.00E-02,  avg # of iterations =  3.2

     total cpu time spent up to now is       15.3 secs

     total energy              =    -669.85836347 Ry
     estimated scf accuracy    <      10.40970788 Ry

     total magnetization       =     2.69 Bohr mag/cell
     absolute magnetization    =     2.69 Bohr mag/cell

     iteration #  2     ecut=    90.00 Ry     beta= 0.20
     Davidson diagonalization with overlap
     ethr =  1.00E-02,  avg # of iterations =  2.1

     total cpu time spent up to now is       24.6 secs

     total energy              =    -670.98123948 Ry
     estimated scf accuracy    <       2.58309447 Ry

     total magnetization       =     2.17 Bohr mag/cell
     absolute magnetization    =     2.17 Bohr mag/cell

     iteration #  3     ecut=    90.00 Ry     beta= 0.20
     Davidson diagonalization with overlap
     ethr =  7.60E-03,  avg # of iterations =  1.6

     total cpu time spent up to now is       32.3 secs

     total energy              =    -671.06542421 Ry
     estimated scf accuracy    <       0.48775643 Ry

     total magnetization       =     2.44 Bohr mag/cell
     absolute magnetization    =     2.45 Bohr mag/cell

     iteration #  4     ecut=    90.00 Ry     beta= 0.20
     Davidson diagonalization with overlap
     ethr =  1.43E-03,  avg # of iterations =  2.0

     total cpu time spent up to now is       41.3 secs

     total energy              =    -671.15182696 Ry
     estimated scf accuracy    <       0.09658601 Ry

     total magnetization       =     2.18 Bohr mag/cell
     absolute magnetization    =     2.20 Bohr mag/cell

     iteration #  5     ecut=    90.00 Ry     beta= 0.20
     Davidson diagonalization with overlap
     ethr =  2.84E-04,  avg # of iterations =  1.8

     total cpu time spent up to now is       49.2 secs

     total energy              =    -671.20207528 Ry
     estimated scf accuracy    <       0.11145323 Ry

     total magnetization       =     2.20 Bohr mag/cell
     absolute magnetization    =     2.22 Bohr mag/cell

     iteration #  6     ecut=    90.00 Ry     beta= 0.20
     Davidson diagonalization with overlap
     ethr =  2.84E-04,  avg # of iterations =  1.7

     total cpu time spent up to now is       57.3 secs

     total energy              =    -671.22494721 Ry
     estimated scf accuracy    <       0.06065606 Ry

     total magnetization       =     1.16 Bohr mag/cell
     absolute magnetization    =     1.20 Bohr mag/cell

     iteration #  7     ecut=    90.00 Ry     beta= 0.20
     Davidson diagonalization with overlap
     ethr =  1.78E-04,  avg # of iterations =  1.0

     total cpu time spent up to now is       64.6 secs

     total energy              =    -671.22134543 Ry
     estimated scf accuracy    <       0.03623971 Ry

     total magnetization       =     1.07 Bohr mag/cell
     absolute magnetization    =     1.11 Bohr mag/cell

     iteration #  8     ecut=    90.00 Ry     beta= 0.20
     Davidson diagonalization with overlap
     ethr =  1.07E-04,  avg # of iterations =  1.6

     total cpu time spent up to now is       72.5 secs

     total energy              =    -671.22639201 Ry
     estimated scf accuracy    <       0.00898019 Ry

     total magnetization       =     0.64 Bohr mag/cell
     absolute magnetization    =     0.66 Bohr mag/cell

     iteration #  9     ecut=    90.00 Ry     beta= 0.20
     Davidson diagonalization with overlap
     ethr =  2.64E-05,  avg # of iterations =  1.4

     total cpu time spent up to now is       79.9 secs

     total energy              =    -671.22622732 Ry
     estimated scf accuracy    <       0.00888932 Ry

     total magnetization       =     0.64 Bohr mag/cell
     absolute magnetization    =     0.66 Bohr mag/cell

     iteration # 10     ecut=    90.00 Ry     beta= 0.20
     Davidson diagonalization with overlap
     ethr =  2.61E-05,  avg # of iterations =  1.0

     total cpu time spent up to now is       87.2 secs

     total energy              =    -671.22539516 Ry
     estimated scf accuracy    <       0.00879038 Ry

     total magnetization       =     0.67 Bohr mag/cell
     absolute magnetization    =     0.68 Bohr mag/cell

     iteration # 11     ecut=    90.00 Ry     beta= 0.20
     Davidson diagonalization with overlap
     ethr =  2.59E-05,  avg # of iterations =  1.0

     total cpu time spent up to now is       94.4 secs

     total energy              =    -671.22609216 Ry
     estimated scf accuracy    <       0.00933368 Ry

     total magnetization       =     0.74 Bohr mag/cell
     absolute magnetization    =     0.77 Bohr mag/cell

     iteration # 12     ecut=    90.00 Ry     beta= 0.20
     Davidson diagonalization with overlap
     ethr =  2.59E-05,  avg # of iterations =  1.0

     total cpu time spent up to now is      101.7 secs

     total energy              =    -671.19905132 Ry
     estimated scf accuracy    <       0.01215978 Ry

     total magnetization       =     0.71 Bohr mag/cell
     absolute magnetization    =     0.73 Bohr mag/cell

     iteration # 13     ecut=    90.00 Ry     beta= 0.20
     Davidson diagonalization with overlap
     ethr =  2.59E-05,  avg # of iterations =  3.8

     total cpu time spent up to now is      113.8 secs

     total energy              =    -671.23234935 Ry
     estimated scf accuracy    <       0.02438250 Ry

     total magnetization       =    -0.32 Bohr mag/cell
     absolute magnetization    =     0.33 Bohr mag/cell

     iteration # 14     ecut=    90.00 Ry     beta= 0.20
     Davidson diagonalization with overlap
     ethr =  2.59E-05,  avg # of iterations =  1.0

     total cpu time spent up to now is      121.0 secs

     total energy              =    -671.23383552 Ry
     estimated scf accuracy    <       0.01593609 Ry

     total magnetization       =    -0.14 Bohr mag/cell
     absolute magnetization    =     0.15 Bohr mag/cell

     iteration # 15     ecut=    90.00 Ry     beta= 0.20
     Davidson diagonalization with overlap
     ethr =  2.59E-05,  avg # of iterations =  1.0

     total cpu time spent up to now is      128.3 secs

     total energy              =    -671.23089381 Ry
     estimated scf accuracy    <       0.01675244 Ry

     total magnetization       =    -0.11 Bohr mag/cell
     absolute magnetization    =     0.12 Bohr mag/cell

     iteration # 16     ecut=    90.00 Ry     beta= 0.20
     Davidson diagonalization with overlap
     ethr =  2.59E-05,  avg # of iterations =  1.5

     total cpu time spent up to now is      136.0 secs

     total energy              =    -671.21867779 Ry
     estimated scf accuracy    <       0.00698734 Ry

     total magnetization       =     0.07 Bohr mag/cell
     absolute magnetization    =     0.09 Bohr mag/cell

     iteration # 17     ecut=    90.00 Ry     beta= 0.20
     Davidson diagonalization with overlap
     ethr =  2.06E-05,  avg # of iterations =  2.0

     total cpu time spent up to now is      144.8 secs

     total energy              =    -671.21454278 Ry
     estimated scf accuracy    <       0.00558300 Ry

     total magnetization       =     0.64 Bohr mag/cell
     absolute magnetization    =     0.66 Bohr mag/cell

     iteration # 18     ecut=    90.00 Ry     beta= 0.20
     Davidson diagonalization with overlap
     ethr =  1.64E-05,  avg # of iterations =  1.7

     total cpu time spent up to now is      153.0 secs

     total energy              =    -671.22145258 Ry
     estimated scf accuracy    <       0.00840390 Ry

     total magnetization       =     1.08 Bohr mag/cell
     absolute magnetization    =     1.12 Bohr mag/cell

     iteration # 19     ecut=    90.00 Ry     beta= 0.20
     Davidson diagonalization with overlap
     ethr =  1.64E-05,  avg # of iterations =  1.6

     total cpu time spent up to now is      161.2 secs

     total energy              =    -671.22564174 Ry
     estimated scf accuracy    <       0.00353693 Ry

     total magnetization       =     0.57 Bohr mag/cell
     absolute magnetization    =     0.58 Bohr mag/cell

     iteration # 20     ecut=    90.00 Ry     beta= 0.20
     Davidson diagonalization with overlap
     ethr =  1.04E-05,  avg # of iterations =  2.0

     total cpu time spent up to now is      170.3 secs

     total energy              =    -671.23009653 Ry
     estimated scf accuracy    <       0.00134932 Ry

     total magnetization       =     0.09 Bohr mag/cell
     absolute magnetization    =     0.09 Bohr mag/cell

     iteration # 21     ecut=    90.00 Ry     beta= 0.20
     Davidson diagonalization with overlap
     ethr =  3.97E-06,  avg # of iterations =  2.1

     total cpu time spent up to now is      179.1 secs

     total energy              =    -671.22846035 Ry
     estimated scf accuracy    <       0.00065919 Ry

     total magnetization       =    -0.08 Bohr mag/cell
     absolute magnetization    =     0.09 Bohr mag/cell

     iteration # 22     ecut=    90.00 Ry     beta= 0.20
     Davidson diagonalization with overlap
     ethr =  1.94E-06,  avg # of iterations =  2.0

     total cpu time spent up to now is      189.3 secs

     total energy              =    -671.23086852 Ry
     estimated scf accuracy    <       0.00087216 Ry

     total magnetization       =     0.18 Bohr mag/cell
     absolute magnetization    =     0.19 Bohr mag/cell

     iteration # 23     ecut=    90.00 Ry     beta= 0.20
     Davidson diagonalization with overlap
     ethr =  1.94E-06,  avg # of iterations =  1.5

     total cpu time spent up to now is      197.1 secs

     total energy              =    -671.23094527 Ry
     estimated scf accuracy    <       0.00023432 Ry

     total magnetization       =     0.07 Bohr mag/cell
     absolute magnetization    =     0.07 Bohr mag/cell

     iteration # 24     ecut=    90.00 Ry     beta= 0.20
     Davidson diagonalization with overlap
     ethr =  6.89E-07,  avg # of iterations =  1.5

     total cpu time spent up to now is      205.1 secs

     total energy              =    -671.23116686 Ry
     estimated scf accuracy    <       0.00049898 Ry

     total magnetization       =     0.11 Bohr mag/cell
     absolute magnetization    =     0.12 Bohr mag/cell

     iteration # 25     ecut=    90.00 Ry     beta= 0.20
     Davidson diagonalization with overlap
     ethr =  6.89E-07,  avg # of iterations =  1.3

     total cpu time spent up to now is      212.5 secs

     total energy              =    -671.23126856 Ry
     estimated scf accuracy    <       0.00018684 Ry

     total magnetization       =     0.07 Bohr mag/cell
     absolute magnetization    =     0.07 Bohr mag/cell

     iteration # 26     ecut=    90.00 Ry     beta= 0.20
     Davidson diagonalization with overlap
     ethr =  5.50E-07,  avg # of iterations =  1.0

     total cpu time spent up to now is      219.7 secs

     total energy              =    -671.23130665 Ry
     estimated scf accuracy    <       0.00013743 Ry

     total magnetization       =     0.05 Bohr mag/cell
     absolute magnetization    =     0.06 Bohr mag/cell

     iteration # 27     ecut=    90.00 Ry     beta= 0.20
     Davidson diagonalization with overlap
     ethr =  4.04E-07,  avg # of iterations =  1.4

     total cpu time spent up to now is      227.3 secs

     total energy              =    -671.23134023 Ry
     estimated scf accuracy    <       0.00001267 Ry

     total magnetization       =     0.02 Bohr mag/cell
     absolute magnetization    =     0.02 Bohr mag/cell

     iteration # 28     ecut=    90.00 Ry     beta= 0.20
     Davidson diagonalization with overlap
     ethr =  3.73E-08,  avg # of iterations =  2.0

     total cpu time spent up to now is      236.3 secs

     total energy              =    -671.23135715 Ry
     estimated scf accuracy    <       0.00000212 Ry

     total magnetization       =    -0.01 Bohr mag/cell
     absolute magnetization    =     0.01 Bohr mag/cell

     iteration # 29     ecut=    90.00 Ry     beta= 0.20
     Davidson diagonalization with overlap
     ethr =  6.23E-09,  avg # of iterations =  2.1

     total cpu time spent up to now is      244.4 secs

     total energy              =    -671.23135798 Ry
     estimated scf accuracy    <       0.00000003 Ry

     total magnetization       =    -0.00 Bohr mag/cell
     absolute magnetization    =     0.00 Bohr mag/cell

     iteration # 30     ecut=    90.00 Ry     beta= 0.20
     Davidson diagonalization with overlap
     ethr =  7.36E-11,  avg # of iterations =  4.9

     total cpu time spent up to now is      257.4 secs

     total energy              =    -671.23135806 Ry
     estimated scf accuracy    <       0.00000002 Ry

     total magnetization       =    -0.00 Bohr mag/cell
     absolute magnetization    =     0.00 Bohr mag/cell

     iteration # 31     ecut=    90.00 Ry     beta= 0.20
     Davidson diagonalization with overlap
     ethr =  5.91E-11,  avg # of iterations =  1.6

     Magnetic moment per site:
     atom:    1    charge:   15.4148    magn:   -0.0001    constr:    0.0000
     atom:    2    charge:   13.2627    magn:   -0.0002    constr:    0.0000

     total cpu time spent up to now is      265.1 secs

     End of self-consistent calculation

     Number of k-points >= 100: set verbosity='high' to print the bands.

     the Fermi energy is    40.0921 ev

!    total energy              =    -671.23135816 Ry
     estimated scf accuracy    <          7.2E-09 Ry
     smearing contrib. (-TS)   =      -0.00108859 Ry
     internal energy E=F+TS    =    -671.23026956 Ry

     The total energy is F=E-TS. E is the sum of the following terms:
     one-electron contribution =    -164.58186012 Ry
     hartree contribution      =     129.66128775 Ry
     xc contribution           =     -72.34451951 Ry
     ewald contribution        =    -487.80935687 Ry
     one-center paw contrib.   =     -76.15582081 Ry

     total magnetization       =    -0.00 Bohr mag/cell
     absolute magnetization    =     0.00 Bohr mag/cell

     convergence has been achieved in  31 iterations

     Forces acting on atoms (cartesian axes, Ry/au):

     atom    1 type  1   force =     0.00000096    0.00000154   -0.00000048
     atom    2 type  2   force =    -0.00000096   -0.00000154    0.00000048

     Total force =     0.000003     Total SCF correction =     0.000007
     SCF correction compared to forces is large: reduce conv_thr to get better values


     Computing stress (Cartesian axis) and pressure

          total   stress  (Ry/bohr**3)                   (kbar)     P=     7705.36
   0.05237997  -0.00000001   0.00000001         7705.36       -0.00        0.00
  -0.00000001   0.05237994  -0.00000003           -0.00     7705.35       -0.00
   0.00000001  -0.00000003   0.05237995            0.00       -0.00     7705.36


     BFGS Geometry Optimization
     Energy error            =      0.0E+00
     Gradient error          =      1.5E-06
     Cell gradient error     =      5.2E-02


     number of scf cycles    =   1
     number of bfgs steps    =   0

     enthalpy new            =    -671.2313581568 Ry

     new trust radius        =       0.5000000000 bohr
     new conv_thr            =       0.0000000100 Ry

     new unit-cell volume =    162.60719 a.u.^3 (    24.09590 Ang^3 )
     density =      7.89324 g/cm^3

CELL_PARAMETERS (alat=  6.73809573)
  -0.642933539  -0.000000068   0.642933482
   0.000000013   0.642933399   0.642933427
  -0.642933592   0.642933507  -0.000000121

ATOMIC_POSITIONS (alat)
Ni            0.6429336254        0.6429334434        0.6429334396
Fe           -0.0000000399       -0.0000000640        0.0000000201



     Writing output data file ./pwscf.save/
     NEW-OLD atomic charge density approx. for the potential

     Check: negative core charge=   -0.000016
     extrapolated charge   50.94889, renormalised to   34.00000
     Generating pointlists ...

     total cpu time spent up to now is      269.5 secs

     Self-consistent Calculation

     iteration #  1     ecut=    90.00 Ry     beta= 0.20
     Davidson diagonalization with overlap
     c_bands:  1 eigenvalues not converged
     c_bands:  5 eigenvalues not converged
     c_bands:  3 eigenvalues not converged
     c_bands:  1 eigenvalues not converged
     c_bands:  1 eigenvalues not converged
     c_bands:  1 eigenvalues not converged
     c_bands:  1 eigenvalues not converged
     c_bands:  1 eigenvalues not converged
     c_bands:  1 eigenvalues not converged
     c_bands:  1 eigenvalues not converged
     c_bands:  3 eigenvalues not converged
     c_bands:  1 eigenvalues not converged
     c_bands:  3 eigenvalues not converged
     c_bands:  1 eigenvalues not converged
     c_bands:  1 eigenvalues not converged
     c_bands:  1 eigenvalues not converged
     c_bands:  1 eigenvalues not converged
     c_bands:  1 eigenvalues not converged
     c_bands:  1 eigenvalues not converged
     c_bands:  1 eigenvalues not converged
     c_bands:  1 eigenvalues not converged
     c_bands:  1 eigenvalues not converged
     c_bands:  1 eigenvalues not converged
     c_bands:  1 eigenvalues not converged
     c_bands:  1 eigenvalues not converged
     c_bands:  1 eigenvalues not converged
     c_bands:  1 eigenvalues not converged
     c_bands:  1 eigenvalues not converged
     c_bands:  1 eigenvalues not converged
     c_bands:  1 eigenvalues not converged
     c_bands:  1 eigenvalues not converged
     c_bands:  1 eigenvalues not converged
     c_bands:  1 eigenvalues not converged
     c_bands:  1 eigenvalues not converged
     c_bands:  1 eigenvalues not converged
     c_bands:  1 eigenvalues not converged
     c_bands:  1 eigenvalues not converged
     c_bands:  1 eigenvalues not converged
     c_bands:  1 eigenvalues not converged
     c_bands:  1 eigenvalues not converged
     c_bands:  1 eigenvalues not converged
     c_bands:  1 eigenvalues not converged
     c_bands:  1 eigenvalues not converged
     c_bands:  1 eigenvalues not converged
     c_bands:  1 eigenvalues not converged
     c_bands:  1 eigenvalues not converged
     c_bands:  1 eigenvalues not converged
     c_bands:  1 eigenvalues not converged
     c_bands:  1 eigenvalues not converged
     c_bands:  1 eigenvalues not converged
     c_bands:  1 eigenvalues not converged
     c_bands:  1 eigenvalues not converged
     c_bands:  1 eigenvalues not converged
     c_bands:  1 eigenvalues not converged
     c_bands:  1 eigenvalues not converged
     c_bands:  1 eigenvalues not converged
     c_bands:  1 eigenvalues not converged
     c_bands:  1 eigenvalues not converged
     c_bands:  1 eigenvalues not converged
     c_bands:  1 eigenvalues not converged
     c_bands:  1 eigenvalues not converged
     c_bands:  1 eigenvalues not converged
     c_bands:  1 eigenvalues not converged
     c_bands:  1 eigenvalues not converged
     c_bands:  1 eigenvalues not converged
     c_bands:  1 eigenvalues not converged
     c_bands:  1 eigenvalues not converged
     c_bands:  1 eigenvalues not converged
     c_bands:  1 eigenvalues not converged
     c_bands:  1 eigenvalues not converged
     c_bands:  1 eigenvalues not converged
     c_bands:  1 eigenvalues not converged
     c_bands:  1 eigenvalues not converged
     c_bands:  1 eigenvalues not converged
     c_bands:  2 eigenvalues not converged
     c_bands:  1 eigenvalues not converged
     c_bands:  1 eigenvalues not converged
     c_bands:  2 eigenvalues not converged
     c_bands:  1 eigenvalues not converged
     c_bands:  1 eigenvalues not converged
     c_bands:  1 eigenvalues not converged
     c_bands:  1 eigenvalues not converged
     c_bands:  1 eigenvalues not converged
     c_bands:  1 eigenvalues not converged
     c_bands:  1 eigenvalues not converged
     c_bands:  1 eigenvalues not converged
     c_bands:  1 eigenvalues not converged
     c_bands:  1 eigenvalues not converged
     c_bands:  1 eigenvalues not converged
     c_bands:  1 eigenvalues not converged
     c_bands:  1 eigenvalues not converged
     c_bands:  1 eigenvalues not converged
     c_bands:  1 eigenvalues not converged
     c_bands:  1 eigenvalues not converged
     c_bands:  1 eigenvalues not converged
     c_bands:  2 eigenvalues not converged
     c_bands:  1 eigenvalues not converged
     c_bands:  1 eigenvalues not converged
     c_bands:  1 eigenvalues not converged
     c_bands:  1 eigenvalues not converged
     c_bands:  2 eigenvalues not converged
     c_bands:  1 eigenvalues not converged
     c_bands:  1 eigenvalues not converged
     c_bands:  1 eigenvalues not converged
     c_bands:  1 eigenvalues not converged
     c_bands:  2 eigenvalues not converged
     c_bands:  1 eigenvalues not converged
     c_bands:  1 eigenvalues not converged
     c_bands:  1 eigenvalues not converged
     c_bands:  1 eigenvalues not converged
     c_bands:  1 eigenvalues not converged
     c_bands:  1 eigenvalues not converged
     c_bands:  1 eigenvalues not converged
     c_bands:  1 eigenvalues not converged
     c_bands:  1 eigenvalues not converged
     c_bands:  1 eigenvalues not converged
     c_bands:  1 eigenvalues not converged
     c_bands:  1 eigenvalues not converged
     c_bands:  1 eigenvalues not converged
     c_bands:  3 eigenvalues not converged
     c_bands:  1 eigenvalues not converged
     c_bands:  1 eigenvalues not converged
     c_bands:  1 eigenvalues not converged
     c_bands:  3 eigenvalues not converged
     c_bands:  1 eigenvalues not converged
     c_bands:  1 eigenvalues not converged
     c_bands:  1 eigenvalues not converged
     c_bands:  1 eigenvalues not converged
     c_bands:  1 eigenvalues not converged
     c_bands:  1 eigenvalues not converged
     c_bands:  1 eigenvalues not converged
     c_bands:  1 eigenvalues not converged
     c_bands:  1 eigenvalues not converged
     c_bands:  4 eigenvalues not converged
     c_bands:  1 eigenvalues not converged
     c_bands:  1 eigenvalues not converged
     c_bands:  5 eigenvalues not converged
     c_bands:  5 eigenvalues not converged
     c_bands:  3 eigenvalues not converged
     c_bands:  1 eigenvalues not converged
     c_bands:  1 eigenvalues not converged
     c_bands:  1 eigenvalues not converged
     c_bands:  1 eigenvalues not converged
     c_bands:  1 eigenvalues not converged
     c_bands:  1 eigenvalues not converged
     c_bands:  3 eigenvalues not converged
     c_bands:  1 eigenvalues not converged
     c_bands:  3 eigenvalues not converged
     c_bands:  1 eigenvalues not converged
     c_bands:  5 eigenvalues not converged
     c_bands:  3 eigenvalues not converged
     c_bands:  1 eigenvalues not converged
     c_bands:  1 eigenvalues not converged
     c_bands:  1 eigenvalues not converged
     c_bands:  1 eigenvalues not converged
     c_bands:  1 eigenvalues not converged
     c_bands:  1 eigenvalues not converged
     c_bands:  1 eigenvalues not converged
     c_bands:  1 eigenvalues not converged
     c_bands:  1 eigenvalues not converged
     c_bands:  1 eigenvalues not converged
     c_bands:  1 eigenvalues not converged
     c_bands:  1 eigenvalues not converged
     c_bands:  1 eigenvalues not converged
     c_bands:  1 eigenvalues not converged
     c_bands:  1 eigenvalues not converged
     c_bands:  1 eigenvalues not converged
     c_bands:  1 eigenvalues not converged
     c_bands:  1 eigenvalues not converged
     c_bands:  1 eigenvalues not converged
     c_bands:  1 eigenvalues not converged
     c_bands:  1 eigenvalues not converged
     c_bands:  1 eigenvalues not converged
     c_bands:  1 eigenvalues not converged
     c_bands:  1 eigenvalues not converged
     c_bands:  1 eigenvalues not converged
     c_bands:  1 eigenvalues not converged
     c_bands:  1 eigenvalues not converged
     c_bands:  1 eigenvalues not converged
     c_bands:  1 eigenvalues not converged
     c_bands:  1 eigenvalues not converged
     c_bands:  1 eigenvalues not converged
     c_bands:  1 eigenvalues not converged
     c_bands:  1 eigenvalues not converged
     c_bands:  1 eigenvalues not converged
     c_bands:  1 eigenvalues not converged
     c_bands:  1 eigenvalues not converged
     c_bands:  1 eigenvalues not converged
     c_bands:  1 eigenvalues not converged
     c_bands:  1 eigenvalues not converged
     c_bands:  1 eigenvalues not converged
     c_bands:  1 eigenvalues not converged
     c_bands:  1 eigenvalues not converged
     c_bands:  1 eigenvalues not converged
     c_bands:  1 eigenvalues not converged
     c_bands:  1 eigenvalues not converged
     c_bands:  1 eigenvalues not converged
     c_bands:  1 eigenvalues not converged
     c_bands:  1 eigenvalues not converged
     c_bands:  1 eigenvalues not converged
     c_bands:  1 eigenvalues not converged
     c_bands:  1 eigenvalues not converged
     c_bands:  1 eigenvalues not converged
     c_bands:  1 eigenvalues not converged
     c_bands:  1 eigenvalues not converged
     c_bands:  1 eigenvalues not converged
     c_bands:  1 eigenvalues not converged
     c_bands:  1 eigenvalues not converged
     c_bands:  1 eigenvalues not converged
     c_bands:  1 eigenvalues not converged
     c_bands:  1 eigenvalues not converged
     c_bands:  1 eigenvalues not converged
     c_bands:  1 eigenvalues not converged
     c_bands:  1 eigenvalues not converged
     c_bands:  1 eigenvalues not converged
     c_bands:  1 eigenvalues not converged
     c_bands:  1 eigenvalues not converged
     c_bands:  1 eigenvalues not converged
     c_bands:  1 eigenvalues not converged
     c_bands:  1 eigenvalues not converged
     c_bands:  1 eigenvalues not converged
     c_bands:  2 eigenvalues not converged
     c_bands:  1 eigenvalues not converged
     c_bands:  1 eigenvalues not converged
     c_bands:  1 eigenvalues not converged
     c_bands:  1 eigenvalues not converged
     c_bands:  1 eigenvalues not converged
     c_bands:  1 eigenvalues not converged
     c_bands:  1 eigenvalues not converged
     c_bands:  1 eigenvalues not converged
     c_bands:  1 eigenvalues not converged
     c_bands:  1 eigenvalues not converged
     c_bands:  1 eigenvalues not converged
     c_bands:  1 eigenvalues not converged
     c_bands:  2 eigenvalues not converged
     c_bands:  1 eigenvalues not converged
     c_bands:  1 eigenvalues not converged
     c_bands:  1 eigenvalues not converged
     c_bands:  1 eigenvalues not converged
     c_bands:  2 eigenvalues not converged
     c_bands:  1 eigenvalues not converged
     c_bands:  1 eigenvalues not converged
     c_bands:  1 eigenvalues not converged
     c_bands:  1 eigenvalues not converged
     c_bands:  1 eigenvalues not converged
     c_bands:  1 eigenvalues not converged
     c_bands:  1 eigenvalues not converged
     c_bands:  1 eigenvalues not converged
     c_bands:  1 eigenvalues not converged
     c_bands:  1 eigenvalues not converged
     c_bands:  2 eigenvalues not converged
     c_bands:  1 eigenvalues not converged
     c_bands:  1 eigenvalues not converged
     c_bands:  1 eigenvalues not converged
     c_bands:  1 eigenvalues not converged
     c_bands:  1 eigenvalues not converged
     c_bands:  1 eigenvalues not converged
     c_bands:  1 eigenvalues not converged
     c_bands:  1 eigenvalues not converged
     c_bands:  1 eigenvalues not converged
     c_bands:  1 eigenvalues not converged
     c_bands:  1 eigenvalues not converged
     c_bands:  1 eigenvalues not converged
     c_bands:  1 eigenvalues not converged
     c_bands:  1 eigenvalues not converged
     c_bands:  1 eigenvalues not converged
     c_bands:  1 eigenvalues not converged
     c_bands:  1 eigenvalues not converged
     c_bands:  1 eigenvalues not converged
     c_bands:  1 eigenvalues not converged
     c_bands:  1 eigenvalues not converged
     c_bands:  1 eigenvalues not converged
     c_bands:  1 eigenvalues not converged
     c_bands:  1 eigenvalues not converged
     c_bands:  1 eigenvalues not converged
     c_bands:  1 eigenvalues not converged
     c_bands:  1 eigenvalues not converged
     c_bands:  1 eigenvalues not converged
     c_bands:  1 eigenvalues not converged
     c_bands:  1 eigenvalues not converged
     c_bands:  1 eigenvalues not converged
     c_bands:  1 eigenvalues not converged
     c_bands:  1 eigenvalues not converged
     c_bands:  5 eigenvalues not converged
     ethr =  1.00E-06,  avg # of iterations = 36.0

     total cpu time spent up to now is      368.8 secs

     total energy              =    -586.60466262 Ry
     estimated scf accuracy    <      86.03263733 Ry

     total magnetization       =    -0.00 Bohr mag/cell
     absolute magnetization    =     0.00 Bohr mag/cell

     iteration #  2     ecut=    90.00 Ry     beta= 0.20
     Davidson diagonalization with overlap
     ethr =  1.00E-02,  avg # of iterations =  6.0

     total cpu time spent up to now is      387.1 secs

     total energy              =    -685.59370235 Ry
     estimated scf accuracy    <      58.48145140 Ry

     total magnetization       =    -0.00 Bohr mag/cell
     absolute magnetization    =     0.00 Bohr mag/cell

     iteration #  3     ecut=    90.00 Ry     beta= 0.20
     Davidson diagonalization with overlap
     ethr =  1.00E-02,  avg # of iterations =  2.0

     total cpu time spent up to now is      396.4 secs

     total energy              =    -666.47533567 Ry
     estimated scf accuracy    <      38.11601844 Ry

     total magnetization       =    -0.01 Bohr mag/cell
     absolute magnetization    =     0.01 Bohr mag/cell

     iteration #  4     ecut=    90.00 Ry     beta= 0.20
     Davidson diagonalization with overlap
     ethr =  1.00E-02,  avg # of iterations =  3.0

     total cpu time spent up to now is      408.1 secs

     total energy              =    -672.59840269 Ry
     estimated scf accuracy    <       2.62853226 Ry

     total magnetization       =    -0.01 Bohr mag/cell
     absolute magnetization    =     0.01 Bohr mag/cell

     iteration #  5     ecut=    90.00 Ry     beta= 0.20
     Davidson diagonalization with overlap
     ethr =  7.73E-03,  avg # of iterations =  1.0

     total cpu time spent up to now is      415.5 secs

     total energy              =    -672.64653509 Ry
     estimated scf accuracy    <       2.64508311 Ry

     total magnetization       =    -0.01 Bohr mag/cell
     absolute magnetization    =     0.01 Bohr mag/cell

     iteration #  6     ecut=    90.00 Ry     beta= 0.20
     Davidson diagonalization with overlap
     ethr =  7.73E-03,  avg # of iterations =  1.0

     total cpu time spent up to now is      422.8 secs

     total energy              =    -672.82226247 Ry
     estimated scf accuracy    <       3.00846324 Ry

     total magnetization       =    -0.01 Bohr mag/cell
     absolute magnetization    =     0.01 Bohr mag/cell

     iteration #  7     ecut=    90.00 Ry     beta= 0.20
     Davidson diagonalization with overlap
     ethr =  7.73E-03,  avg # of iterations =  1.0

     total cpu time spent up to now is      430.1 secs

     total energy              =    -672.65415380 Ry
     estimated scf accuracy    <       3.42223023 Ry

     total magnetization       =    -0.01 Bohr mag/cell
     absolute magnetization    =     0.01 Bohr mag/cell

     iteration #  8     ecut=    90.00 Ry     beta= 0.20
     Davidson diagonalization with overlap
     ethr =  7.73E-03,  avg # of iterations =  2.0

     total cpu time spent up to now is      438.1 secs

     total energy              =    -673.19232791 Ry
     estimated scf accuracy    <       2.24798007 Ry

     total magnetization       =    -0.01 Bohr mag/cell
     absolute magnetization    =     0.01 Bohr mag/cell

     iteration #  9     ecut=    90.00 Ry     beta= 0.20
     Davidson diagonalization with overlap
     ethr =  6.61E-03,  avg # of iterations =  1.0

     total cpu time spent up to now is      445.4 secs

     total energy              =    -670.86189956 Ry
     estimated scf accuracy    <       4.26486158 Ry

     total magnetization       =    -0.02 Bohr mag/cell
     absolute magnetization    =     0.02 Bohr mag/cell

     iteration # 10     ecut=    90.00 Ry     beta= 0.20
     Davidson diagonalization with overlap
     ethr =  6.61E-03,  avg # of iterations =  3.5

     total cpu time spent up to now is      456.4 secs

     total energy              =    -673.47144620 Ry
     estimated scf accuracy    <      18.86342614 Ry

     total magnetization       =    -0.01 Bohr mag/cell
     absolute magnetization    =     0.02 Bohr mag/cell

     iteration # 11     ecut=    90.00 Ry     beta= 0.20
     Davidson diagonalization with overlap
     ethr =  6.61E-03,  avg # of iterations =  1.0

     total cpu time spent up to now is      463.7 secs

     total energy              =    -673.66429557 Ry
     estimated scf accuracy    <      15.83915051 Ry

     total magnetization       =    -0.02 Bohr mag/cell
     absolute magnetization    =     0.02 Bohr mag/cell

     iteration # 12     ecut=    90.00 Ry     beta= 0.20
     Davidson diagonalization with overlap
     ethr =  6.61E-03,  avg # of iterations =  1.0

     total cpu time spent up to now is      471.0 secs

     total energy              =    -672.42946683 Ry
     estimated scf accuracy    <      16.31068769 Ry

     total magnetization       =    -0.01 Bohr mag/cell
     absolute magnetization    =     0.02 Bohr mag/cell

     iteration # 13     ecut=    90.00 Ry     beta= 0.20
     Davidson diagonalization with overlap
     ethr =  6.61E-03,  avg # of iterations =  2.0

     total cpu time spent up to now is      479.3 secs

     total energy              =    -671.88097130 Ry
     estimated scf accuracy    <       4.35101926 Ry

     total magnetization       =    -0.06 Bohr mag/cell
     absolute magnetization    =     0.07 Bohr mag/cell

     iteration # 14     ecut=    90.00 Ry     beta= 0.20
     Davidson diagonalization with overlap
     ethr =  6.61E-03,  avg # of iterations =  2.0

     total cpu time spent up to now is      488.2 secs

     total energy              =    -672.32598624 Ry
     estimated scf accuracy    <       0.65988269 Ry

     total magnetization       =    -0.06 Bohr mag/cell
     absolute magnetization    =     0.06 Bohr mag/cell

     iteration # 15     ecut=    90.00 Ry     beta= 0.20
     Davidson diagonalization with overlap
     ethr =  1.94E-03,  avg # of iterations =  2.1

     total cpu time spent up to now is      496.5 secs

     total energy              =    -672.35045392 Ry
     estimated scf accuracy    <       0.17820647 Ry

     total magnetization       =    -0.11 Bohr mag/cell
     absolute magnetization    =     0.11 Bohr mag/cell

     iteration # 16     ecut=    90.00 Ry     beta= 0.20
     Davidson diagonalization with overlap
     ethr =  5.24E-04,  avg # of iterations =  2.1

     total cpu time spent up to now is      504.6 secs

     total energy              =    -672.40115127 Ry
     estimated scf accuracy    <       0.26151171 Ry

     total magnetization       =    -0.22 Bohr mag/cell
     absolute magnetization    =     0.22 Bohr mag/cell

     iteration # 17     ecut=    90.00 Ry     beta= 0.20
     Davidson diagonalization with overlap
     ethr =  5.24E-04,  avg # of iterations =  1.1

     total cpu time spent up to now is      511.9 secs

     total energy              =    -672.38389129 Ry
     estimated scf accuracy    <       0.46535671 Ry

     total magnetization       =    -0.17 Bohr mag/cell
     absolute magnetization    =     0.18 Bohr mag/cell

     iteration # 18     ecut=    90.00 Ry     beta= 0.20
     Davidson diagonalization with overlap
     ethr =  5.24E-04,  avg # of iterations =  1.1

     total cpu time spent up to now is      519.3 secs

     total energy              =    -672.42305227 Ry
     estimated scf accuracy    <       0.13734249 Ry

     total magnetization       =    -0.05 Bohr mag/cell
     absolute magnetization    =     0.05 Bohr mag/cell

     iteration # 19     ecut=    90.00 Ry     beta= 0.20
     Davidson diagonalization with overlap
     ethr =  4.04E-04,  avg # of iterations =  2.1

     total cpu time spent up to now is      527.6 secs

     total energy              =    -672.20555591 Ry
     estimated scf accuracy    <       1.54634022 Ry

     total magnetization       =    -0.39 Bohr mag/cell
     absolute magnetization    =     0.40 Bohr mag/cell

     iteration # 20     ecut=    90.00 Ry     beta= 0.20
     Davidson diagonalization with overlap
     ethr =  4.04E-04,  avg # of iterations =  2.1

     total cpu time spent up to now is      536.7 secs

     total energy              =    -672.34698499 Ry
     estimated scf accuracy    <       0.88313875 Ry

     total magnetization       =     0.27 Bohr mag/cell
     absolute magnetization    =     0.27 Bohr mag/cell

     iteration # 21     ecut=    90.00 Ry     beta= 0.20
     Davidson diagonalization with overlap
     ethr =  4.04E-04,  avg # of iterations =  1.1

     total cpu time spent up to now is      544.1 secs

     total energy              =    -672.37414819 Ry
     estimated scf accuracy    <       0.01001908 Ry

     total magnetization       =     0.29 Bohr mag/cell
     absolute magnetization    =     0.30 Bohr mag/cell

     iteration # 22     ecut=    90.00 Ry     beta= 0.20
     Davidson diagonalization with overlap
     ethr =  2.95E-05,  avg # of iterations =  3.9

     total cpu time spent up to now is      554.6 secs

     total energy              =    -672.37622832 Ry
     estimated scf accuracy    <       0.22338453 Ry

     total magnetization       =    -0.22 Bohr mag/cell
     absolute magnetization    =     0.22 Bohr mag/cell

     iteration # 23     ecut=    90.00 Ry     beta= 0.20
     Davidson diagonalization with overlap
     ethr =  2.95E-05,  avg # of iterations =  2.1

     total cpu time spent up to now is      563.8 secs

     total energy              =    -672.37084915 Ry
     estimated scf accuracy    <       0.07583806 Ry

     total magnetization       =     0.10 Bohr mag/cell
     absolute magnetization    =     0.10 Bohr mag/cell

     iteration # 24     ecut=    90.00 Ry     beta= 0.20
     Davidson diagonalization with overlap
     ethr =  2.95E-05,  avg # of iterations =  2.1

     total cpu time spent up to now is      572.5 secs

     total energy              =    -672.37550610 Ry
     estimated scf accuracy    <       0.02089600 Ry

     total magnetization       =     0.03 Bohr mag/cell
     absolute magnetization    =     0.04 Bohr mag/cell

     iteration # 25     ecut=    90.00 Ry     beta= 0.20
     Davidson diagonalization with overlap
     ethr =  2.95E-05,  avg # of iterations =  1.1

     total cpu time spent up to now is      579.7 secs

     total energy              =    -672.37698068 Ry
     estimated scf accuracy    <       0.01164726 Ry

     total magnetization       =     0.02 Bohr mag/cell
     absolute magnetization    =     0.05 Bohr mag/cell

     iteration # 26     ecut=    90.00 Ry     beta= 0.20
     Davidson diagonalization with overlap
     ethr =  2.95E-05,  avg # of iterations =  1.0

     total cpu time spent up to now is      586.8 secs

     total energy              =    -672.37763342 Ry
     estimated scf accuracy    <       0.00030478 Ry

     total magnetization       =     0.03 Bohr mag/cell
     absolute magnetization    =     0.05 Bohr mag/cell

     iteration # 27     ecut=    90.00 Ry     beta= 0.20
     Davidson diagonalization with overlap
     ethr =  8.96E-07,  avg # of iterations =  2.1

     total cpu time spent up to now is      595.2 secs

     total energy              =    -672.37762152 Ry
     estimated scf accuracy    <       0.00344726 Ry

     total magnetization       =    -0.01 Bohr mag/cell
     absolute magnetization    =     0.06 Bohr mag/cell

     iteration # 28     ecut=    90.00 Ry     beta= 0.20
     Davidson diagonalization with overlap
     ethr =  8.96E-07,  avg # of iterations =  1.8

     total cpu time spent up to now is      602.8 secs

     total energy              =    -672.37773173 Ry
     estimated scf accuracy    <       0.00009013 Ry

     total magnetization       =    -0.00 Bohr mag/cell
     absolute magnetization    =     0.06 Bohr mag/cell

     iteration # 29     ecut=    90.00 Ry     beta= 0.20
     Davidson diagonalization with overlap
     ethr =  2.65E-07,  avg # of iterations =  1.7

     total cpu time spent up to now is      610.4 secs

     total energy              =    -672.37773458 Ry
     estimated scf accuracy    <       0.00001439 Ry

     total magnetization       =    -0.00 Bohr mag/cell
     absolute magnetization    =     0.06 Bohr mag/cell

     iteration # 30     ecut=    90.00 Ry     beta= 0.20
     Davidson diagonalization with overlap
     ethr =  4.23E-08,  avg # of iterations =  3.0

     total cpu time spent up to now is      618.7 secs

     total energy              =    -672.37772706 Ry
     estimated scf accuracy    <       0.00001624 Ry

     total magnetization       =    -0.00 Bohr mag/cell
     absolute magnetization    =     0.06 Bohr mag/cell

     iteration # 31     ecut=    90.00 Ry     beta= 0.20
     Davidson diagonalization with overlap
     ethr =  4.23E-08,  avg # of iterations =  1.0

     total cpu time spent up to now is      625.8 secs

     total energy              =    -672.37765224 Ry
     estimated scf accuracy    <       0.00001097 Ry

     total magnetization       =    -0.00 Bohr mag/cell
     absolute magnetization    =     0.05 Bohr mag/cell

     iteration # 32     ecut=    90.00 Ry     beta= 0.20
     Davidson diagonalization with overlap
     ethr =  3.23E-08,  avg # of iterations =  2.0

     total cpu time spent up to now is      634.9 secs

     total energy              =    -672.37766252 Ry
     estimated scf accuracy    <       0.00002249 Ry

     total magnetization       =    -0.01 Bohr mag/cell
     absolute magnetization    =     0.02 Bohr mag/cell

     iteration # 33     ecut=    90.00 Ry     beta= 0.20
     Davidson diagonalization with overlap
     ethr =  3.23E-08,  avg # of iterations =  2.0

     total cpu time spent up to now is      643.5 secs

     total energy              =    -672.37768120 Ry
     estimated scf accuracy    <       0.00000251 Ry

     total magnetization       =    -0.00 Bohr mag/cell
     absolute magnetization    =     0.01 Bohr mag/cell

     iteration # 34     ecut=    90.00 Ry     beta= 0.20
     Davidson diagonalization with overlap
     ethr =  7.38E-09,  avg # of iterations =  1.7

     total cpu time spent up to now is      651.3 secs

     total energy              =    -672.37769210 Ry
     estimated scf accuracy    <       0.00000023 Ry

     total magnetization       =    -0.00 Bohr mag/cell
     absolute magnetization    =     0.00 Bohr mag/cell

     iteration # 35     ecut=    90.00 Ry     beta= 0.20
     Davidson diagonalization with overlap
     ethr =  6.79E-10,  avg # of iterations =  2.5

     total cpu time spent up to now is      659.7 secs

     total energy              =    -672.37770003 Ry
     estimated scf accuracy    <       0.00000023 Ry

     total magnetization       =    -0.00 Bohr mag/cell
     absolute magnetization    =     0.00 Bohr mag/cell

     iteration # 36     ecut=    90.00 Ry     beta= 0.20
     Davidson diagonalization with overlap
     ethr =  6.64E-10,  avg # of iterations =  1.1

     total cpu time spent up to now is      666.8 secs

     total energy              =    -672.37770553 Ry
     estimated scf accuracy    <       0.00000005 Ry

     total magnetization       =    -0.00 Bohr mag/cell
     absolute magnetization    =     0.00 Bohr mag/cell

     iteration # 37     ecut=    90.00 Ry     beta= 0.20
     Davidson diagonalization with overlap
     ethr =  1.61E-10,  avg # of iterations =  2.0

     total cpu time spent up to now is      674.9 secs

     total energy              =    -672.37770874 Ry
     estimated scf accuracy    <       0.00000002 Ry

     total magnetization       =     0.00 Bohr mag/cell
     absolute magnetization    =     0.00 Bohr mag/cell

     iteration # 38     ecut=    90.00 Ry     beta= 0.20
     Davidson diagonalization with overlap
     ethr =  6.24E-11,  avg # of iterations =  2.5

     total cpu time spent up to now is      684.1 secs

     total energy              =    -672.37771096 Ry
     estimated scf accuracy    <       0.00000001 Ry

     total magnetization       =     0.00 Bohr mag/cell
     absolute magnetization    =     0.00 Bohr mag/cell

     iteration # 39     ecut=    90.00 Ry     beta= 0.20
     Davidson diagonalization with overlap
     ethr =  3.75E-11,  avg # of iterations =  2.1

     total cpu time spent up to now is      693.4 secs

     total energy              =    -672.37771222 Ry
     estimated scf accuracy    <       0.00000001 Ry

     total magnetization       =    -0.00 Bohr mag/cell
     absolute magnetization    =     0.00 Bohr mag/cell

     iteration # 40     ecut=    90.00 Ry     beta= 0.20
     Davidson diagonalization with overlap
     ethr =  3.75E-11,  avg # of iterations =  2.0

     Magnetic moment per site:
     atom:    1    charge:   14.9203    magn:    0.0000    constr:    0.0000
     atom:    2    charge:   12.6476    magn:   -0.0002    constr:    0.0000

     total cpu time spent up to now is      702.0 secs

     End of self-consistent calculation

     Number of k-points >= 100: set verbosity='high' to print the bands.

     the Fermi energy is    16.4574 ev

!    total energy              =    -672.37771445 Ry
     estimated scf accuracy    <          3.2E-09 Ry
     smearing contrib. (-TS)   =      -0.00467147 Ry
     internal energy E=F+TS    =    -672.37304298 Ry

     The total energy is F=E-TS. E is the sum of the following terms:
     one-electron contribution =    -333.25962542 Ry
     hartree contribution      =     186.67092091 Ry
     xc contribution           =     -70.27604659 Ry
     ewald contribution        =    -379.36220315 Ry
     one-center paw contrib.   =     -76.14608872 Ry

     total magnetization       =    -0.00 Bohr mag/cell
     absolute magnetization    =     0.00 Bohr mag/cell

     convergence has been achieved in  40 iterations

     Forces acting on atoms (cartesian axes, Ry/au):

     atom    1 type  1   force =    -0.00000010    0.00000010   -0.00000008
     atom    2 type  2   force =     0.00000010   -0.00000010    0.00000008

     Total force =     0.000000     Total SCF correction =     0.000001
     SCF correction compared to forces is large: reduce conv_thr to get better values


     Computing stress (Cartesian axis) and pressure

          total   stress  (Ry/bohr**3)                   (kbar)     P=       28.28
   0.00019213  -0.00000006   0.00000000           28.26       -0.01        0.00
  -0.00000006   0.00019231  -0.00000001           -0.01       28.29       -0.00
   0.00000000  -0.00000001   0.00019236            0.00       -0.00       28.30

     Energy error            =      1.1E+00
     Gradient error          =      1.0E-07
     Cell gradient error     =      1.9E-04


     number of scf cycles    =   2
     number of bfgs steps    =   1

     enthalpy old            =    -671.2313581568 Ry
     enthalpy new            =    -672.3777144457 Ry

     CASE: enthalpy_new < enthalpy_old

     new trust radius        =       0.0034697966 bohr
     new conv_thr            =            1.0E-10 Ry

     new unit-cell volume =    163.27032 a.u.^3 (    24.19416 Ang^3 )
     density =      7.86119 g/cm^3

CELL_PARAMETERS (alat=  6.73809573)
  -0.643803419   0.000001011   0.643808176
  -0.000001159   0.643807030   0.643808028
  -0.643804701   0.643808459  -0.000000270

ATOMIC_POSITIONS (alat)
Ni            0.6438023376        0.6438058984        0.6438080503
Fe           -0.0000000154       -0.0000000885        0.0000000395



     Writing output data file ./pwscf.save/
     NEW-OLD atomic charge density approx. for the potential

     Check: negative core charge=   -0.000016
     extrapolated charge   34.12997, renormalised to   34.00000
     Generating pointlists ...

     total cpu time spent up to now is      706.4 secs

     Self-consistent Calculation

     iteration #  1     ecut=    90.00 Ry     beta= 0.20
     Davidson diagonalization with overlap
     ethr =  1.00E-06,  avg # of iterations =  6.7

     total cpu time spent up to now is      724.3 secs

     total energy              =    -672.34264867 Ry
     estimated scf accuracy    <       0.07254198 Ry

     total magnetization       =    -0.00 Bohr mag/cell
     absolute magnetization    =     0.00 Bohr mag/cell

     iteration #  2     ecut=    90.00 Ry     beta= 0.20
     Davidson diagonalization with overlap
     ethr =  2.13E-04,  avg # of iterations =  2.6

     total cpu time spent up to now is      734.3 secs

     total energy              =    -672.36017761 Ry
     estimated scf accuracy    <       0.47085743 Ry

     total magnetization       =    -0.00 Bohr mag/cell
     absolute magnetization    =     0.00 Bohr mag/cell

     iteration #  3     ecut=    90.00 Ry     beta= 0.20
     Davidson diagonalization with overlap
     ethr =  2.13E-04,  avg # of iterations =  1.9

     total cpu time spent up to now is      742.2 secs

     total energy              =    -672.37839651 Ry
     estimated scf accuracy    <       0.01915502 Ry

     total magnetization       =    -0.00 Bohr mag/cell
     absolute magnetization    =     0.00 Bohr mag/cell

     iteration #  4     ecut=    90.00 Ry     beta= 0.20
     Davidson diagonalization with overlap
     ethr =  5.63E-05,  avg # of iterations =  1.0

     total cpu time spent up to now is      749.5 secs

     total energy              =    -672.37881769 Ry
     estimated scf accuracy    <       0.01211135 Ry

     total magnetization       =    -0.00 Bohr mag/cell
     absolute magnetization    =     0.00 Bohr mag/cell

     iteration #  5     ecut=    90.00 Ry     beta= 0.20
     Davidson diagonalization with overlap
     ethr =  3.56E-05,  avg # of iterations =  1.0

     total cpu time spent up to now is      756.8 secs

     total energy              =    -672.37875769 Ry
     estimated scf accuracy    <       0.00825017 Ry

     total magnetization       =    -0.00 Bohr mag/cell
     absolute magnetization    =     0.00 Bohr mag/cell

     iteration #  6     ecut=    90.00 Ry     beta= 0.20
     Davidson diagonalization with overlap
     ethr =  2.43E-05,  avg # of iterations =  1.0

     total cpu time spent up to now is      764.1 secs

     total energy              =    -672.37874476 Ry
     estimated scf accuracy    <       0.00732879 Ry

     total magnetization       =    -0.00 Bohr mag/cell
     absolute magnetization    =     0.00 Bohr mag/cell

     iteration #  7     ecut=    90.00 Ry     beta= 0.20
     Davidson diagonalization with overlap
     ethr =  2.16E-05,  avg # of iterations =  1.0

     total cpu time spent up to now is      771.3 secs

     total energy              =    -672.37855692 Ry
     estimated scf accuracy    <       0.00717721 Ry

     total magnetization       =    -0.00 Bohr mag/cell
     absolute magnetization    =     0.00 Bohr mag/cell

     iteration #  8     ecut=    90.00 Ry     beta= 0.20
     Davidson diagonalization with overlap
     ethr =  2.11E-05,  avg # of iterations =  1.0

     total cpu time spent up to now is      778.6 secs

     total energy              =    -672.37756198 Ry
     estimated scf accuracy    <       0.00602246 Ry

     total magnetization       =    -0.00 Bohr mag/cell
     absolute magnetization    =     0.00 Bohr mag/cell

     iteration #  9     ecut=    90.00 Ry     beta= 0.20
     Davidson diagonalization with overlap
     ethr =  1.77E-05,  avg # of iterations =  1.1

     total cpu time spent up to now is      786.1 secs

     total energy              =    -672.37787938 Ry
     estimated scf accuracy    <       0.00054902 Ry

     total magnetization       =    -0.00 Bohr mag/cell
     absolute magnetization    =     0.00 Bohr mag/cell

     iteration # 10     ecut=    90.00 Ry     beta= 0.20
     Davidson diagonalization with overlap
     ethr =  1.61E-06,  avg # of iterations =  1.2

     total cpu time spent up to now is      793.6 secs

     total energy              =    -672.37775398 Ry
     estimated scf accuracy    <       0.00063592 Ry

     total magnetization       =    -0.00 Bohr mag/cell
     absolute magnetization    =     0.00 Bohr mag/cell

     iteration # 11     ecut=    90.00 Ry     beta= 0.20
     Davidson diagonalization with overlap
     ethr =  1.61E-06,  avg # of iterations =  2.0

     total cpu time spent up to now is      802.1 secs

     total energy              =    -672.37782097 Ry
     estimated scf accuracy    <       0.00000533 Ry

     total magnetization       =    -0.00 Bohr mag/cell
     absolute magnetization    =     0.00 Bohr mag/cell

     iteration # 12     ecut=    90.00 Ry     beta= 0.20
     Davidson diagonalization with overlap
     ethr =  1.57E-08,  avg # of iterations =  5.0

     total cpu time spent up to now is      815.2 secs

     total energy              =    -672.37782509 Ry
     estimated scf accuracy    <       0.00000716 Ry

     total magnetization       =    -0.00 Bohr mag/cell
     absolute magnetization    =     0.00 Bohr mag/cell

     iteration # 13     ecut=    90.00 Ry     beta= 0.20
     Davidson diagonalization with overlap
     ethr =  1.57E-08,  avg # of iterations =  1.0

     total cpu time spent up to now is      822.6 secs

     total energy              =    -672.37783181 Ry
     estimated scf accuracy    <       0.00000493 Ry

     total magnetization       =    -0.00 Bohr mag/cell
     absolute magnetization    =     0.00 Bohr mag/cell

     iteration # 14     ecut=    90.00 Ry     beta= 0.20
     Davidson diagonalization with overlap
     ethr =  1.45E-08,  avg # of iterations =  2.0

     total cpu time spent up to now is      831.8 secs

     total energy              =    -672.37782250 Ry
     estimated scf accuracy    <       0.00003926 Ry

     total magnetization       =    -0.00 Bohr mag/cell
     absolute magnetization    =     0.00 Bohr mag/cell

     iteration # 15     ecut=    90.00 Ry     beta= 0.20
     Davidson diagonalization with overlap
     ethr =  1.45E-08,  avg # of iterations =  2.0

     total cpu time spent up to now is      841.2 secs

     total energy              =    -672.37782554 Ry
     estimated scf accuracy    <       0.00000238 Ry

     total magnetization       =    -0.00 Bohr mag/cell
     absolute magnetization    =     0.00 Bohr mag/cell

     iteration # 16     ecut=    90.00 Ry     beta= 0.20
     Davidson diagonalization with overlap
     ethr =  7.00E-09,  avg # of iterations =  2.0

     total cpu time spent up to now is      850.0 secs

     total energy              =    -672.37782542 Ry
     estimated scf accuracy    <       0.00000785 Ry

     total magnetization       =    -0.00 Bohr mag/cell
     absolute magnetization    =     0.00 Bohr mag/cell

     iteration # 17     ecut=    90.00 Ry     beta= 0.20
     Davidson diagonalization with overlap
     ethr =  7.00E-09,  avg # of iterations =  1.0

     total cpu time spent up to now is      857.3 secs

     total energy              =    -672.37782539 Ry
     estimated scf accuracy    <       0.00000632 Ry

     total magnetization       =    -0.00 Bohr mag/cell
     absolute magnetization    =     0.00 Bohr mag/cell

     iteration # 18     ecut=    90.00 Ry     beta= 0.20
     Davidson diagonalization with overlap
     ethr =  7.00E-09,  avg # of iterations =  1.0

     total cpu time spent up to now is      864.7 secs

     total energy              =    -672.37782532 Ry
     estimated scf accuracy    <       0.00000690 Ry

     total magnetization       =    -0.00 Bohr mag/cell
     absolute magnetization    =     0.00 Bohr mag/cell

     iteration # 19     ecut=    90.00 Ry     beta= 0.20
     Davidson diagonalization with overlap
     ethr =  7.00E-09,  avg # of iterations =  1.0

     total cpu time spent up to now is      872.0 secs

     total energy              =    -672.37782552 Ry
     estimated scf accuracy    <       0.00000649 Ry

     total magnetization       =    -0.00 Bohr mag/cell
     absolute magnetization    =     0.00 Bohr mag/cell

     iteration # 20     ecut=    90.00 Ry     beta= 0.20
     Davidson diagonalization with overlap
     ethr =  7.00E-09,  avg # of iterations =  1.0

     total cpu time spent up to now is      879.2 secs

     total energy              =    -672.37782153 Ry
     estimated scf accuracy    <       0.00000718 Ry

     total magnetization       =    -0.00 Bohr mag/cell
     absolute magnetization    =     0.00 Bohr mag/cell

     iteration # 21     ecut=    90.00 Ry     beta= 0.20
     Davidson diagonalization with overlap
     ethr =  7.00E-09,  avg # of iterations =  4.0

     total cpu time spent up to now is      891.0 secs

     total energy              =    -672.37782321 Ry
     estimated scf accuracy    <       0.00000130 Ry

     total magnetization       =    -0.00 Bohr mag/cell
     absolute magnetization    =     0.00 Bohr mag/cell

     iteration # 22     ecut=    90.00 Ry     beta= 0.20
     Davidson diagonalization with overlap
     ethr =  3.82E-09,  avg # of iterations =  2.0

     total cpu time spent up to now is      899.9 secs

     total energy              =    -672.37782337 Ry
     estimated scf accuracy    <       0.00000020 Ry

     total magnetization       =    -0.00 Bohr mag/cell
     absolute magnetization    =     0.00 Bohr mag/cell

     iteration # 23     ecut=    90.00 Ry     beta= 0.20
     Davidson diagonalization with overlap
     ethr =  5.85E-10,  avg # of iterations =  2.0

     total cpu time spent up to now is      908.6 secs

     total energy              =    -672.37782344 Ry
     estimated scf accuracy    <       0.00000015 Ry

     total magnetization       =    -0.00 Bohr mag/cell
     absolute magnetization    =     0.00 Bohr mag/cell

     iteration # 24     ecut=    90.00 Ry     beta= 0.20
     Davidson diagonalization with overlap
     ethr =  4.47E-10,  avg # of iterations =  2.0

     total cpu time spent up to now is      916.8 secs

     total energy              =    -672.37782339 Ry
     estimated scf accuracy    <       0.00000022 Ry

     total magnetization       =    -0.00 Bohr mag/cell
     absolute magnetization    =     0.00 Bohr mag/cell

     iteration # 25     ecut=    90.00 Ry     beta= 0.20
     Davidson diagonalization with overlap
     ethr =  4.47E-10,  avg # of iterations =  2.0

     total cpu time spent up to now is      926.2 secs

     total energy              =    -672.37782343 Ry
     estimated scf accuracy    <       0.00000009 Ry

     total magnetization       =    -0.00 Bohr mag/cell
     absolute magnetization    =     0.00 Bohr mag/cell

     iteration # 26     ecut=    90.00 Ry     beta= 0.20
     Davidson diagonalization with overlap
     ethr =  2.79E-10,  avg # of iterations =  2.1

     total cpu time spent up to now is      935.1 secs

     total energy              =    -672.37782338 Ry
     estimated scf accuracy    <       0.00000016 Ry

     total magnetization       =    -0.00 Bohr mag/cell
     absolute magnetization    =     0.00 Bohr mag/cell

     iteration # 27     ecut=    90.00 Ry     beta= 0.20
     Davidson diagonalization with overlap
     ethr =  2.79E-10,  avg # of iterations =  2.0

     total cpu time spent up to now is      944.3 secs

     total energy              =    -672.37782340 Ry
     estimated scf accuracy    <       0.00000005 Ry

     total magnetization       =    -0.00 Bohr mag/cell
     absolute magnetization    =     0.00 Bohr mag/cell

     iteration # 28     ecut=    90.00 Ry     beta= 0.20
     Davidson diagonalization with overlap
     ethr =  1.36E-10,  avg # of iterations =  2.0

     total cpu time spent up to now is      953.3 secs

     total energy              =    -672.37782341 Ry
     estimated scf accuracy    <       0.00000003 Ry

     total magnetization       =    -0.00 Bohr mag/cell
     absolute magnetization    =     0.00 Bohr mag/cell

     iteration # 29     ecut=    90.00 Ry     beta= 0.20
     Davidson diagonalization with overlap
     ethr =  1.03E-10,  avg # of iterations =  1.7

     total cpu time spent up to now is      961.0 secs

     total energy              =    -672.37782342 Ry
     estimated scf accuracy    <       0.00000002 Ry

     total magnetization       =    -0.00 Bohr mag/cell
     absolute magnetization    =     0.00 Bohr mag/cell

     iteration # 30     ecut=    90.00 Ry     beta= 0.20
     Davidson diagonalization with overlap
     ethr =  4.59E-11,  avg # of iterations =  1.0

     total cpu time spent up to now is      968.3 secs

     total energy              =    -672.37782342 Ry
     estimated scf accuracy    <       0.00000002 Ry

     total magnetization       =    -0.00 Bohr mag/cell
     absolute magnetization    =     0.00 Bohr mag/cell

     iteration # 31     ecut=    90.00 Ry     beta= 0.20
     Davidson diagonalization with overlap
     ethr =  4.59E-11,  avg # of iterations =  1.0

     total cpu time spent up to now is      975.6 secs

     total energy              =    -672.37782342 Ry
     estimated scf accuracy    <       0.00000002 Ry

     total magnetization       =    -0.00 Bohr mag/cell
     absolute magnetization    =     0.00 Bohr mag/cell

     iteration # 32     ecut=    90.00 Ry     beta= 0.20
     Davidson diagonalization with overlap
     ethr =  4.54E-11,  avg # of iterations =  1.0

     total cpu time spent up to now is      982.9 secs

     total energy              =    -672.37782341 Ry
     estimated scf accuracy    <       0.00000002 Ry

     total magnetization       =    -0.00 Bohr mag/cell
     absolute magnetization    =     0.00 Bohr mag/cell

     iteration # 33     ecut=    90.00 Ry     beta= 0.20
     Davidson diagonalization with overlap
     ethr =  4.54E-11,  avg # of iterations =  1.0

     total cpu time spent up to now is      990.2 secs

     total energy              =    -672.37782341 Ry
     estimated scf accuracy    <       0.00000002 Ry

     total magnetization       =    -0.00 Bohr mag/cell
     absolute magnetization    =     0.00 Bohr mag/cell

     iteration # 34     ecut=    90.00 Ry     beta= 0.20
     Davidson diagonalization with overlap
     ethr =  4.54E-11,  avg # of iterations =  1.0

     total cpu time spent up to now is      997.5 secs

     total energy              =    -672.37782341 Ry
     estimated scf accuracy    <       0.00000002 Ry

     total magnetization       =    -0.00 Bohr mag/cell
     absolute magnetization    =     0.00 Bohr mag/cell

     iteration # 35     ecut=    90.00 Ry     beta= 0.20
     Davidson diagonalization with overlap
     ethr =  4.54E-11,  avg # of iterations =  1.9

     total cpu time spent up to now is     1005.5 secs

     total energy              =    -672.37782341 Ry
     estimated scf accuracy    <       0.00000003 Ry

     total magnetization       =    -0.00 Bohr mag/cell
     absolute magnetization    =     0.00 Bohr mag/cell

     iteration # 36     ecut=    90.00 Ry     beta= 0.20
     Davidson diagonalization with overlap
     ethr =  4.54E-11,  avg # of iterations =  2.0

     total cpu time spent up to now is     1013.5 secs

     total energy              =    -672.37782341 Ry
     estimated scf accuracy    <       0.00000002 Ry

     total magnetization       =    -0.00 Bohr mag/cell
     absolute magnetization    =     0.00 Bohr mag/cell

     iteration # 37     ecut=    90.00 Ry     beta= 0.20
     Davidson diagonalization with overlap
     ethr =  4.54E-11,  avg # of iterations =  1.0

     total cpu time spent up to now is     1020.7 secs

     total energy              =    -672.37782341 Ry
     estimated scf accuracy    <       0.00000002 Ry

     total magnetization       =    -0.00 Bohr mag/cell
     absolute magnetization    =     0.00 Bohr mag/cell

     iteration # 38     ecut=    90.00 Ry     beta= 0.20
     Davidson diagonalization with overlap
     ethr =  4.54E-11,  avg # of iterations =  1.0

     total cpu time spent up to now is     1028.0 secs

     total energy              =    -672.37782340 Ry
     estimated scf accuracy    <       0.00000001 Ry

     total magnetization       =    -0.00 Bohr mag/cell
     absolute magnetization    =     0.00 Bohr mag/cell

     iteration # 39     ecut=    90.00 Ry     beta= 0.20
     Davidson diagonalization with overlap
     ethr =  4.23E-11,  avg # of iterations =  1.0

     total cpu time spent up to now is     1035.2 secs

     total energy              =    -672.37782338 Ry
     estimated scf accuracy    <       0.00000001 Ry

     total magnetization       =    -0.00 Bohr mag/cell
     absolute magnetization    =     0.00 Bohr mag/cell

     iteration # 40     ecut=    90.00 Ry     beta= 0.20
     Davidson diagonalization with overlap
     ethr =  3.99E-11,  avg # of iterations =  1.0

     total cpu time spent up to now is     1042.5 secs

     total energy              =    -672.37782336 Ry
     estimated scf accuracy    <       0.00000001 Ry

     total magnetization       =    -0.00 Bohr mag/cell
     absolute magnetization    =     0.00 Bohr mag/cell

     iteration # 41     ecut=    90.00 Ry     beta= 0.20
     Davidson diagonalization with overlap
     ethr =  3.85E-11,  avg # of iterations =  1.5

     total cpu time spent up to now is     1049.9 secs

     total energy              =    -672.37782333 Ry
     estimated scf accuracy    <       0.00000001 Ry

     total magnetization       =    -0.00 Bohr mag/cell
     absolute magnetization    =     0.00 Bohr mag/cell

     iteration # 42     ecut=    90.00 Ry     beta= 0.20
     Davidson diagonalization with overlap
     ethr =  3.85E-11,  avg # of iterations =  2.0

     total cpu time spent up to now is     1059.4 secs

     total energy              =    -672.37782334 Ry
     estimated scf accuracy    <          9.1E-09 Ry

     total magnetization       =     0.00 Bohr mag/cell
     absolute magnetization    =     0.00 Bohr mag/cell

     iteration # 43     ecut=    90.00 Ry     beta= 0.20
     Davidson diagonalization with overlap
     ethr =  2.68E-11,  avg # of iterations =  2.0

     total cpu time spent up to now is     1067.8 secs

     total energy              =    -672.37782335 Ry
     estimated scf accuracy    <          3.1E-09 Ry

     total magnetization       =     0.00 Bohr mag/cell
     absolute magnetization    =     0.00 Bohr mag/cell

     iteration # 44     ecut=    90.00 Ry     beta= 0.20
     Davidson diagonalization with overlap
     ethr =  8.99E-12,  avg # of iterations =  1.7

     total cpu time spent up to now is     1075.6 secs

     total energy              =    -672.37782336 Ry
     estimated scf accuracy    <          3.2E-09 Ry

     total magnetization       =     0.00 Bohr mag/cell
     absolute magnetization    =     0.00 Bohr mag/cell

     iteration # 45     ecut=    90.00 Ry     beta= 0.20
     Davidson diagonalization with overlap
     ethr =  8.99E-12,  avg # of iterations =  1.0

     total cpu time spent up to now is     1082.8 secs

     total energy              =    -672.37782337 Ry
     estimated scf accuracy    <          3.2E-09 Ry

     total magnetization       =     0.00 Bohr mag/cell
     absolute magnetization    =     0.00 Bohr mag/cell

     iteration # 46     ecut=    90.00 Ry     beta= 0.20
     Davidson diagonalization with overlap
     ethr =  8.99E-12,  avg # of iterations =  1.0

     total cpu time spent up to now is     1090.0 secs

     total energy              =    -672.37782337 Ry
     estimated scf accuracy    <          2.8E-09 Ry

     total magnetization       =    -0.00 Bohr mag/cell
     absolute magnetization    =     0.00 Bohr mag/cell

     iteration # 47     ecut=    90.00 Ry     beta= 0.20
     Davidson diagonalization with overlap
     ethr =  8.16E-12,  avg # of iterations =  1.0

     total cpu time spent up to now is     1097.3 secs

     total energy              =    -672.37782338 Ry
     estimated scf accuracy    <          2.6E-09 Ry

     total magnetization       =     0.00 Bohr mag/cell
     absolute magnetization    =     0.00 Bohr mag/cell

     iteration # 48     ecut=    90.00 Ry     beta= 0.20
     Davidson diagonalization with overlap
     ethr =  7.54E-12,  avg # of iterations =  1.0

     total cpu time spent up to now is     1104.6 secs

     total energy              =    -672.37782338 Ry
     estimated scf accuracy    <          2.6E-09 Ry

     total magnetization       =     0.00 Bohr mag/cell
     absolute magnetization    =     0.00 Bohr mag/cell

     iteration # 49     ecut=    90.00 Ry     beta= 0.20
     Davidson diagonalization with overlap
     ethr =  7.54E-12,  avg # of iterations =  1.0

     total cpu time spent up to now is     1111.8 secs

     total energy              =    -672.37782338 Ry
     estimated scf accuracy    <          2.6E-09 Ry

     total magnetization       =    -0.00 Bohr mag/cell
     absolute magnetization    =     0.00 Bohr mag/cell

     iteration # 50     ecut=    90.00 Ry     beta= 0.20
     Davidson diagonalization with overlap
     ethr =  7.54E-12,  avg # of iterations =  1.0

     total cpu time spent up to now is     1119.0 secs

     total energy              =    -672.37782338 Ry
     estimated scf accuracy    <          2.4E-09 Ry

     total magnetization       =    -0.00 Bohr mag/cell
     absolute magnetization    =     0.00 Bohr mag/cell

     iteration # 51     ecut=    90.00 Ry     beta= 0.20
     Davidson diagonalization with overlap
     ethr =  7.13E-12,  avg # of iterations =  1.0

     total cpu time spent up to now is     1126.2 secs

     total energy              =    -672.37782338 Ry
     estimated scf accuracy    <          2.5E-09 Ry

     total magnetization       =    -0.00 Bohr mag/cell
     absolute magnetization    =     0.00 Bohr mag/cell

     iteration # 52     ecut=    90.00 Ry     beta= 0.20
     Davidson diagonalization with overlap
     ethr =  7.13E-12,  avg # of iterations =  1.0

     total cpu time spent up to now is     1133.5 secs

     total energy              =    -672.37782338 Ry
     estimated scf accuracy    <          2.5E-09 Ry

     total magnetization       =    -0.00 Bohr mag/cell
     absolute magnetization    =     0.00 Bohr mag/cell

     iteration # 53     ecut=    90.00 Ry     beta= 0.20
     Davidson diagonalization with overlap
     ethr =  7.13E-12,  avg # of iterations =  1.0

     total cpu time spent up to now is     1140.7 secs

     total energy              =    -672.37782338 Ry
     estimated scf accuracy    <          2.5E-09 Ry

     total magnetization       =    -0.00 Bohr mag/cell
     absolute magnetization    =     0.00 Bohr mag/cell

     iteration # 54     ecut=    90.00 Ry     beta= 0.20
     Davidson diagonalization with overlap
     ethr =  7.13E-12,  avg # of iterations =  1.0

     total cpu time spent up to now is     1147.9 secs

     total energy              =    -672.37782338 Ry
     estimated scf accuracy    <          2.4E-09 Ry

     total magnetization       =    -0.00 Bohr mag/cell
     absolute magnetization    =     0.00 Bohr mag/cell

     iteration # 55     ecut=    90.00 Ry     beta= 0.20
     Davidson diagonalization with overlap
     ethr =  7.06E-12,  avg # of iterations =  1.0

     total cpu time spent up to now is     1155.2 secs

     total energy              =    -672.37782337 Ry
     estimated scf accuracy    <          2.4E-09 Ry

     total magnetization       =    -0.00 Bohr mag/cell
     absolute magnetization    =     0.00 Bohr mag/cell

     iteration # 56     ecut=    90.00 Ry     beta= 0.20
     Davidson diagonalization with overlap
     ethr =  7.06E-12,  avg # of iterations =  1.9

     total cpu time spent up to now is     1163.1 secs

     total energy              =    -672.37782335 Ry
     estimated scf accuracy    <          2.6E-09 Ry

     total magnetization       =    -0.00 Bohr mag/cell
     absolute magnetization    =     0.00 Bohr mag/cell

     iteration # 57     ecut=    90.00 Ry     beta= 0.20
     Davidson diagonalization with overlap
     ethr =  7.06E-12,  avg # of iterations =  2.0

     total cpu time spent up to now is     1172.0 secs

     total energy              =    -672.37782331 Ry
     estimated scf accuracy    <          1.9E-09 Ry

     total magnetization       =    -0.00 Bohr mag/cell
     absolute magnetization    =     0.00 Bohr mag/cell

     iteration # 58     ecut=    90.00 Ry     beta= 0.20
     Davidson diagonalization with overlap
     ethr =  5.50E-12,  avg # of iterations =  2.5

     total cpu time spent up to now is     1181.8 secs

     total energy              =    -672.37782328 Ry
     estimated scf accuracy    <          8.3E-10 Ry

     total magnetization       =    -0.00 Bohr mag/cell
     absolute magnetization    =     0.00 Bohr mag/cell

     iteration # 59     ecut=    90.00 Ry     beta= 0.20
     Davidson diagonalization with overlap
     ethr =  2.43E-12,  avg # of iterations =  3.3

     total cpu time spent up to now is     1192.9 secs

     total energy              =    -672.37782332 Ry
     estimated scf accuracy    <          4.4E-10 Ry

     total magnetization       =    -0.00 Bohr mag/cell
     absolute magnetization    =     0.00 Bohr mag/cell

     iteration # 60     ecut=    90.00 Ry     beta= 0.20
     Davidson diagonalization with overlap
     ethr =  1.28E-12,  avg # of iterations =  1.9

     Magnetic moment per site:
     atom:    1    charge:   14.9194    magn:    0.0000    constr:    0.0000
     atom:    2    charge:   12.6466    magn:   -0.0000    constr:    0.0000

     total cpu time spent up to now is     1200.7 secs

     End of self-consistent calculation

     Number of k-points >= 100: set verbosity='high' to print the bands.

     the Fermi energy is    16.3712 ev

!    total energy              =    -672.37782337 Ry
     estimated scf accuracy    <          4.3E-11 Ry
     smearing contrib. (-TS)   =      -0.00470547 Ry
     internal energy E=F+TS    =    -672.37311790 Ry

     The total energy is F=E-TS. E is the sum of the following terms:
[...]
     estimated scf accuracy    <       0.00000251 Ry

     total magnetization       =     0.00 Bohr mag/cell
     absolute magnetization    =     0.00 Bohr mag/cell

     iteration # 20     ecut=    90.00 Ry     beta= 0.20
     Davidson diagonalization with overlap
     ethr =  7.37E-09,  avg # of iterations =  1.0

     total cpu time spent up to now is     2567.2 secs

     total energy              =    -672.38653200 Ry
     estimated scf accuracy    <       0.00000103 Ry

     total magnetization       =     0.00 Bohr mag/cell
     absolute magnetization    =     0.00 Bohr mag/cell

     iteration # 21     ecut=    90.00 Ry     beta= 0.20
     Davidson diagonalization with overlap
     ethr =  3.03E-09,  avg # of iterations =  1.0

     total cpu time spent up to now is     2580.1 secs

     total energy              =    -672.38653125 Ry
     estimated scf accuracy    <       0.00000030 Ry

     total magnetization       =     0.00 Bohr mag/cell
     absolute magnetization    =     0.00 Bohr mag/cell

     iteration # 22     ecut=    90.00 Ry     beta= 0.20
     Davidson diagonalization with overlap
     ethr =  8.80E-10,  avg # of iterations =  2.1

     total cpu time spent up to now is     2596.7 secs

     total energy              =    -672.38653310 Ry
     estimated scf accuracy    <       0.00000003 Ry

     total magnetization       =    -0.00 Bohr mag/cell
     absolute magnetization    =     0.00 Bohr mag/cell

     iteration # 23     ecut=    90.00 Ry     beta= 0.20
     Davidson diagonalization with overlap
     ethr =  9.18E-11,  avg # of iterations =  4.1

     total cpu time spent up to now is     2616.8 secs

     total energy              =    -672.38653208 Ry
     estimated scf accuracy    <       0.00000011 Ry

     total magnetization       =    -0.00 Bohr mag/cell
     absolute magnetization    =     0.00 Bohr mag/cell

     iteration # 24     ecut=    90.00 Ry     beta= 0.20
     Davidson diagonalization with overlap
     ethr =  9.18E-11,  avg # of iterations =  2.2

     total cpu time spent up to now is     2633.1 secs

     total energy              =    -672.38653352 Ry
     estimated scf accuracy    <       0.00000001 Ry

     total magnetization       =    -0.00 Bohr mag/cell
     absolute magnetization    =     0.00 Bohr mag/cell

     iteration # 25     ecut=    90.00 Ry     beta= 0.20
     Davidson diagonalization with overlap
     ethr =  4.20E-11,  avg # of iterations =  2.0

     total cpu time spent up to now is     2648.2 secs

     total energy              =    -672.38653427 Ry
     estimated scf accuracy    <       0.00000001 Ry

     total magnetization       =    -0.00 Bohr mag/cell
     absolute magnetization    =     0.00 Bohr mag/cell

     iteration # 26     ecut=    90.00 Ry     beta= 0.20
     Davidson diagonalization with overlap
     ethr =  3.69E-11,  avg # of iterations =  2.0

     total cpu time spent up to now is     2663.6 secs

     total energy              =    -672.38653439 Ry
     estimated scf accuracy    <       0.00000001 Ry

     total magnetization       =    -0.00 Bohr mag/cell
     absolute magnetization    =     0.00 Bohr mag/cell

     iteration # 27     ecut=    90.00 Ry     beta= 0.20
     Davidson diagonalization with overlap
     ethr =  3.18E-11,  avg # of iterations =  1.0

     total cpu time spent up to now is     2676.5 secs

     total energy              =    -672.38653455 Ry
     estimated scf accuracy    <       0.00000001 Ry

     total magnetization       =    -0.00 Bohr mag/cell
     absolute magnetization    =     0.00 Bohr mag/cell

     iteration # 28     ecut=    90.00 Ry     beta= 0.20
     Davidson diagonalization with overlap
     ethr =  3.18E-11,  avg # of iterations =  1.2

     total cpu time spent up to now is     2689.7 secs

     total energy              =    -672.38653441 Ry
     estimated scf accuracy    <          8.5E-09 Ry

     total magnetization       =    -0.00 Bohr mag/cell
     absolute magnetization    =     0.00 Bohr mag/cell

     iteration # 29     ecut=    90.00 Ry     beta= 0.20
     Davidson diagonalization with overlap
     ethr =  2.50E-11,  avg # of iterations =  1.0

     total cpu time spent up to now is     2702.6 secs

     total energy              =    -672.38653210 Ry
     estimated scf accuracy    <          8.2E-09 Ry

     total magnetization       =    -0.00 Bohr mag/cell
     absolute magnetization    =     0.00 Bohr mag/cell

     iteration # 30     ecut=    90.00 Ry     beta= 0.20
     Davidson diagonalization with overlap
     ethr =  2.40E-11,  avg # of iterations =  1.3

     total cpu time spent up to now is     2715.8 secs

     total energy              =    -672.38653217 Ry
     estimated scf accuracy    <          5.7E-09 Ry

     total magnetization       =    -0.00 Bohr mag/cell
     absolute magnetization    =     0.00 Bohr mag/cell

     iteration # 31     ecut=    90.00 Ry     beta= 0.20
     Davidson diagonalization with overlap
     ethr =  1.69E-11,  avg # of iterations =  1.0

     total cpu time spent up to now is     2728.7 secs

     total energy              =    -672.38653212 Ry
     estimated scf accuracy    <          5.2E-09 Ry

     total magnetization       =    -0.00 Bohr mag/cell
     absolute magnetization    =     0.00 Bohr mag/cell

     iteration # 32     ecut=    90.00 Ry     beta= 0.20
     Davidson diagonalization with overlap
     ethr =  1.53E-11,  avg # of iterations =  1.0

     total cpu time spent up to now is     2741.7 secs

     total energy              =    -672.38653225 Ry
     estimated scf accuracy    <          4.6E-09 Ry

     total magnetization       =    -0.00 Bohr mag/cell
     absolute magnetization    =     0.00 Bohr mag/cell

     iteration # 33     ecut=    90.00 Ry     beta= 0.20
     Davidson diagonalization with overlap
     ethr =  1.36E-11,  avg # of iterations =  1.0

     total cpu time spent up to now is     2754.5 secs

     total energy              =    -672.38653228 Ry
     estimated scf accuracy    <          4.3E-09 Ry

     total magnetization       =    -0.00 Bohr mag/cell
     absolute magnetization    =     0.00 Bohr mag/cell

     iteration # 34     ecut=    90.00 Ry     beta= 0.20
     Davidson diagonalization with overlap
     ethr =  1.28E-11,  avg # of iterations =  1.0

     total cpu time spent up to now is     2767.5 secs

     total energy              =    -672.38653248 Ry
     estimated scf accuracy    <          4.2E-09 Ry

     total magnetization       =    -0.00 Bohr mag/cell
     absolute magnetization    =     0.00 Bohr mag/cell

     iteration # 35     ecut=    90.00 Ry     beta= 0.20
     Davidson diagonalization with overlap
     ethr =  1.24E-11,  avg # of iterations =  1.0

     total cpu time spent up to now is     2780.4 secs

     total energy              =    -672.38653225 Ry
     estimated scf accuracy    <          4.3E-09 Ry

     total magnetization       =    -0.00 Bohr mag/cell
     absolute magnetization    =     0.00 Bohr mag/cell

     iteration # 36     ecut=    90.00 Ry     beta= 0.20
     Davidson diagonalization with overlap
     ethr =  1.24E-11,  avg # of iterations =  1.0

     total cpu time spent up to now is     2793.4 secs

     total energy              =    -672.38653223 Ry
     estimated scf accuracy    <          4.4E-09 Ry

     total magnetization       =    -0.00 Bohr mag/cell
     absolute magnetization    =     0.00 Bohr mag/cell

     iteration # 37     ecut=    90.00 Ry     beta= 0.20
     Davidson diagonalization with overlap
     ethr =  1.24E-11,  avg # of iterations =  1.0

     total cpu time spent up to now is     2806.3 secs

     total energy              =    -672.38653223 Ry
     estimated scf accuracy    <          4.4E-09 Ry

     total magnetization       =    -0.00 Bohr mag/cell
     absolute magnetization    =     0.00 Bohr mag/cell

     iteration # 38     ecut=    90.00 Ry     beta= 0.20
     Davidson diagonalization with overlap
     ethr =  1.24E-11,  avg # of iterations =  1.0

     total cpu time spent up to now is     2819.3 secs

     total energy              =    -672.38653253 Ry
     estimated scf accuracy    <          4.3E-09 Ry

     total magnetization       =    -0.00 Bohr mag/cell
     absolute magnetization    =     0.00 Bohr mag/cell

     iteration # 39     ecut=    90.00 Ry     beta= 0.20
     Davidson diagonalization with overlap
     ethr =  1.24E-11,  avg # of iterations =  1.0

     total cpu time spent up to now is     2832.2 secs

     total energy              =    -672.38653218 Ry
     estimated scf accuracy    <          4.5E-09 Ry

     total magnetization       =    -0.00 Bohr mag/cell
     absolute magnetization    =     0.00 Bohr mag/cell

     iteration # 40     ecut=    90.00 Ry     beta= 0.20
     Davidson diagonalization with overlap
     ethr =  1.24E-11,  avg # of iterations =  1.0

     total cpu time spent up to now is     2845.1 secs

     total energy              =    -672.38653291 Ry
     estimated scf accuracy    <          3.9E-09 Ry

     total magnetization       =    -0.00 Bohr mag/cell
     absolute magnetization    =     0.00 Bohr mag/cell

     iteration # 41     ecut=    90.00 Ry     beta= 0.20
     Davidson diagonalization with overlap
     ethr =  1.15E-11,  avg # of iterations =  1.0

     total cpu time spent up to now is     2858.1 secs

     total energy              =    -672.38653331 Ry
     estimated scf accuracy    <          2.1E-09 Ry

     total magnetization       =    -0.00 Bohr mag/cell
     absolute magnetization    =     0.00 Bohr mag/cell

     iteration # 42     ecut=    90.00 Ry     beta= 0.20
     Davidson diagonalization with overlap
     ethr =  6.30E-12,  avg # of iterations =  1.4

     total cpu time spent up to now is     2871.5 secs

     total energy              =    -672.38653313 Ry
     estimated scf accuracy    <          2.2E-09 Ry

     total magnetization       =    -0.00 Bohr mag/cell
     absolute magnetization    =     0.00 Bohr mag/cell

     iteration # 43     ecut=    90.00 Ry     beta= 0.20
     Davidson diagonalization with overlap
     ethr =  6.30E-12,  avg # of iterations =  1.0

     total cpu time spent up to now is     2884.5 secs

     total energy              =    -672.38653350 Ry
     estimated scf accuracy    <          9.4E-10 Ry

     total magnetization       =    -0.00 Bohr mag/cell
     absolute magnetization    =     0.00 Bohr mag/cell

     iteration # 44     ecut=    90.00 Ry     beta= 0.20
     Davidson diagonalization with overlap
     ethr =  2.78E-12,  avg # of iterations =  1.9

     total cpu time spent up to now is     2898.6 secs

     total energy              =    -672.38653329 Ry
     estimated scf accuracy    <          6.1E-10 Ry

     total magnetization       =    -0.00 Bohr mag/cell
     absolute magnetization    =     0.00 Bohr mag/cell

     iteration # 45     ecut=    90.00 Ry     beta= 0.20
     Davidson diagonalization with overlap
     ethr =  1.80E-12,  avg # of iterations =  1.0

     total cpu time spent up to now is     2911.6 secs

     total energy              =    -672.38653334 Ry
     estimated scf accuracy    <          4.9E-10 Ry

     total magnetization       =    -0.00 Bohr mag/cell
     absolute magnetization    =     0.00 Bohr mag/cell

     iteration # 46     ecut=    90.00 Ry     beta= 0.20
     Davidson diagonalization with overlap
     ethr =  1.45E-12,  avg # of iterations =  1.0

     total cpu time spent up to now is     2924.4 secs

     total energy              =    -672.38653326 Ry
     estimated scf accuracy    <          4.7E-10 Ry

     total magnetization       =    -0.00 Bohr mag/cell
     absolute magnetization    =     0.00 Bohr mag/cell

     iteration # 47     ecut=    90.00 Ry     beta= 0.20
     Davidson diagonalization with overlap
     ethr =  1.38E-12,  avg # of iterations =  2.0

     total cpu time spent up to now is     2940.5 secs

     total energy              =    -672.38653317 Ry
     estimated scf accuracy    <          3.2E-10 Ry

     total magnetization       =    -0.00 Bohr mag/cell
     absolute magnetization    =     0.00 Bohr mag/cell

     iteration # 48     ecut=    90.00 Ry     beta= 0.20
     Davidson diagonalization with overlap
     ethr =  9.28E-13,  avg # of iterations =  2.0

     total cpu time spent up to now is     2956.7 secs

     total energy              =    -672.38653327 Ry
     estimated scf accuracy    <          2.0E-10 Ry

     total magnetization       =     0.00 Bohr mag/cell
     absolute magnetization    =     0.00 Bohr mag/cell

     iteration # 49     ecut=    90.00 Ry     beta= 0.20
     Davidson diagonalization with overlap
     ethr =  5.95E-13,  avg # of iterations =  2.0

     total cpu time spent up to now is     2973.2 secs

     total energy              =    -672.38653327 Ry
     estimated scf accuracy    <          1.4E-10 Ry

     total magnetization       =     0.00 Bohr mag/cell
     absolute magnetization    =     0.00 Bohr mag/cell

     iteration # 50     ecut=    90.00 Ry     beta= 0.20
     Davidson diagonalization with overlap
     ethr =  4.07E-13,  avg # of iterations =  1.1

     total cpu time spent up to now is     2986.2 secs

     total energy              =    -672.38653329 Ry
     estimated scf accuracy    <          1.2E-10 Ry

     total magnetization       =     0.00 Bohr mag/cell
     absolute magnetization    =     0.00 Bohr mag/cell

     iteration # 51     ecut=    90.00 Ry     beta= 0.20
     Davidson diagonalization with overlap
     ethr =  3.63E-13,  avg # of iterations =  1.0

     total cpu time spent up to now is     2999.0 secs

     total energy              =    -672.38653324 Ry
     estimated scf accuracy    <          1.4E-10 Ry

     total magnetization       =     0.00 Bohr mag/cell
     absolute magnetization    =     0.00 Bohr mag/cell

     iteration # 52     ecut=    90.00 Ry     beta= 0.20
     Davidson diagonalization with overlap
     ethr =  3.63E-13,  avg # of iterations =  1.0

     total cpu time spent up to now is     3011.5 secs

     total energy              =    -672.38653321 Ry
     estimated scf accuracy    <          1.3E-10 Ry

     total magnetization       =     0.00 Bohr mag/cell
     absolute magnetization    =     0.00 Bohr mag/cell

     iteration # 53     ecut=    90.00 Ry     beta= 0.20
     Davidson diagonalization with overlap
     ethr =  3.63E-13,  avg # of iterations =  1.1

     Magnetic moment per site:
     atom:    1    charge:   14.9176    magn:    0.0000    constr:    0.0000
     atom:    2    charge:   12.6436    magn:    0.0000    constr:    0.0000

     total cpu time spent up to now is     3024.0 secs

     End of self-consistent calculation

     Number of k-points >= 100: set verbosity='high' to print the bands.

     the Fermi energy is    16.1436 ev

!    total energy              =    -672.38653337 Ry
     estimated scf accuracy    <          9.7E-11 Ry
     smearing contrib. (-TS)   =      -0.00480446 Ry
     internal energy E=F+TS    =    -672.38172891 Ry

     The total energy is F=E-TS. E is the sum of the following terms:
     one-electron contribution =    -336.31395101 Ry
     hartree contribution      =     187.83347254 Ry
     xc contribution           =     -70.25364414 Ry
     ewald contribution        =    -377.50033170 Ry
     one-center paw contrib.   =     -76.14727460 Ry

     total magnetization       =     0.00 Bohr mag/cell
     absolute magnetization    =     0.00 Bohr mag/cell

     convergence has been achieved in  53 iterations

     Forces acting on atoms (cartesian axes, Ry/au):

     atom    1 type  1   force =    -0.00000002   -0.00000033    0.00000004
     atom    2 type  2   force =     0.00000002    0.00000033   -0.00000004

     Total force =     0.000000     Total SCF correction =     0.000001
     SCF correction compared to forces is large: reduce conv_thr to get better values


     Computing stress (Cartesian axis) and pressure

          total   stress  (Ry/bohr**3)                   (kbar)     P=        7.05
   0.00004792  -0.00000001   0.00000000            7.05       -0.00        0.00
  -0.00000001   0.00004796  -0.00000000           -0.00        7.05       -0.00
   0.00000000  -0.00000000   0.00004796            0.00       -0.00        7.06


     init_run     :     10.97s CPU     11.53s WALL (       2 calls)
     electrons    :   2876.69s CPU   2986.68s WALL (       7 calls)
     update_pot   :      2.95s CPU      3.00s WALL (       5 calls)
     forces       :      8.10s CPU      8.28s WALL (       7 calls)
     stress       :     17.23s CPU     17.36s WALL (       7 calls)

     Called by init_run:
     wfcinit      :      8.84s CPU      9.18s WALL (       2 calls)
     potinit      :      0.73s CPU      0.74s WALL (       2 calls)
     hinit0       :      1.15s CPU      1.29s WALL (       2 calls)

     Called by electrons:
     c_bands      :   2390.15s CPU   2481.90s WALL (     300 calls)
     sum_band     :    404.57s CPU    421.32s WALL (     300 calls)
     v_of_rho     :     11.15s CPU     11.88s WALL (     306 calls)
     newd         :     26.75s CPU     27.06s WALL (     306 calls)
     PAW_pot      :     44.11s CPU     44.26s WALL (     311 calls)
     mix_rho      :      1.01s CPU      1.21s WALL (     300 calls)

     Called by c_bands:
     init_us_2    :     30.00s CPU     31.34s WALL (  625968 calls)
     cegterg      :   2300.82s CPU   2390.13s WALL (  303393 calls)

     Called by *egterg:
     cdiaghg      :    352.00s CPU    362.11s WALL (  880905 calls)
     h_psi        :   1490.99s CPU   1554.60s WALL (  889962 calls)
     s_psi        :     75.72s CPU     79.46s WALL (  889962 calls)
     g_psi        :      5.11s CPU      5.24s WALL (  584553 calls)

     Called by h_psi:
     h_psi:calbec :    102.19s CPU    107.34s WALL (  889962 calls)
     vloc_psi     :   1308.65s CPU   1363.36s WALL (  889962 calls)
     add_vuspsi   :     74.33s CPU     78.39s WALL (  889962 calls)

     General routines
     calbec       :    146.26s CPU    153.60s WALL ( 1232682 calls)
     fft          :      4.72s CPU      5.67s WALL (    7923 calls)
     ffts         :      0.12s CPU      0.13s WALL (    1212 calls)
     fftw         :   1467.44s CPU   1530.09s WALL (36521400 calls)
     interpolate  :      0.58s CPU      0.66s WALL (     612 calls)

     Parallel routines
     fft_scatt_xy :    179.38s CPU    186.35s WALL (36530535 calls)
     fft_scatt_yz :    535.53s CPU    560.23s WALL (36530535 calls)

     PWSCF        :  48m39.07s CPU  50m30.52s WALL


   This run was terminated on:  20:14: 3   8Dec2021            

=------------------------------------------------------------------------------=
   JOB DONE.
=------------------------------------------------------------------------------=
Note: The following floating-point exceptions are signalling: IEEE_UNDERFLOW_FLAG IEEE_DENORMAL
Note: The following floating-point exceptions are signalling: IEEE_UNDERFLOW_FLAG IEEE_DENORMAL
Note: The following floating-point exceptions are signalling: IEEE_UNDERFLOW_FLAG IEEE_DENORMAL
Note: The following floating-point exceptions are signalling: IEEE_UNDERFLOW_FLAG IEEE_DENORMAL
Note: The following floating-point exceptions are signalling: IEEE_UNDERFLOW_FLAG IEEE_DENORMAL
Note: The following floating-point exceptions are signalling: IEEE_UNDERFLOW_FLAG IEEE_DENORMAL
Note: The following floating-point exceptions are signalling: IEEE_UNDERFLOW_FLAG IEEE_DENORMAL
Note: The following floating-point exceptions are signalling: IEEE_UNDERFLOW_FLAG IEEE_DENORMAL
Note: The following floating-point exceptions are signalling: IEEE_UNDERFLOW_FLAG IEEE_DENORMAL
Note: The following floating-point exceptions are signalling: IEEE_UNDERFLOW_FLAG IEEE_DENORMAL
Note: The following floating-point exceptions are signalling: IEEE_UNDERFLOW_FLAG IEEE_DENORMAL
Note: The following floating-point exceptions are signalling: IEEE_UNDERFLOW_FLAG IEEE_DENORMAL
