 # Cr4 Mn4
 
           8  atoms
           2  atom types
 
      0.000000000000       4.385390000000  xlo xhi
      0.000000000000       4.385390000000  ylo yhi
      0.000000000000       4.385390000000  zlo zhi
 
Masses
 
            1   51.99610000             # Cr
            2   54.93804500             # Mn
 
Atoms # atomic
 
         1    1        0.000000000000       0.000000000000       0.000000000000
         2    2        2.192695000000       2.192695000000       2.192695000000
         3    1        4.385390000000       2.192695000000       2.192695000000
         4    2        2.192695000000       0.000000000000       0.000000000000
         5    1        2.192695000000       2.192695000000       0.000000000000
         6    2        4.385390000000       4.385390000000       2.192695000000
         7    1        2.192695000000       4.385390000000       2.192695000000
         8    2        4.385390000000       2.192695000000       0.000000000000
