
     Program PWSCF v.6.7MaX starts on  9Feb2022 at 11: 9:32 

     This program is part of the open-source Quantum ESPRESSO suite
     for quantum simulation of materials; please cite
         "P. Giannozzi et al., J. Phys.:Condens. Matter 21 395502 (2009);
         "P. Giannozzi et al., J. Phys.:Condens. Matter 29 465901 (2017);
          URL http://www.quantum-espresso.org", 
     in publications or presentations arising from this work. More details at
     http://www.quantum-espresso.org/quote

     Parallel version (MPI), running on    24 processors

     MPI processes distributed on     1 nodes
     R & G space division:  proc/nbgrp/npool/nimage =      24
     Reading input from /home/kevin/QE_CoCrFeMnNi/CoCrFeMnNi/Opt/binary/Opt-B1-FeNi/Mix/MD/300K_0.0001Gpa-B1-FeNi/300K_0.0001Gpa-B1-FeNi.in

     Current dimensions of program PWSCF are:
     Max number of different atomic species (ntypx) = 10
     Max number of k-points (npk) =  40000
     Max angular momentum in pseudopotentials (lmaxx) =  3
     file Fe.pbe-spn-kjpaw_psl.0.2.1.UPF: wavefunction(s)  3D renormalized

     Subspace diagonalization in iterative solution of the eigenvalue problem:
     a serial algorithm will be used

     Found symmetry operation: I + (  0.0000  0.5000 -0.5000)
     This is a supercell, fractional translations are disabled

     Parallelization info
     --------------------
     sticks:   dense  smooth     PW     G-vecs:    dense   smooth      PW
     Min         271      90     24                16495     3174     458
     Max         273      91     25                16498     3179     463
     Sum        6525    2177    593               395903    76237   11067



     bravais-lattice index     =            0
     lattice parameter (alat)  =       8.7071  a.u.
     unit-cell volume          =     660.1170 (a.u.)^3
     number of atoms/cell      =            8
     number of atomic types    =            2
     number of electrons       =       136.00
     number of Kohn-Sham states=           82
     kinetic-energy cutoff     =      90.0000  Ry
     charge density cutoff     =    1080.0000  Ry
     scf convergence threshold =      1.0E-08
     mixing beta               =       0.2000
     number of iterations used =            4  plain     mixing
     energy convergence thresh.=      0.0E+00
     force convergence thresh. =      0.0E+00
     press convergence thresh. =      0.0E+00
     Exchange-correlation= SLA  PW   PBX  PBC
                           (   1   4   3   4   0   0   0)
     nstep                     =          102


     celldm(1)=   8.707102  celldm(2)=   0.000000  celldm(3)=   0.000000
     celldm(4)=   0.000000  celldm(5)=   0.000000  celldm(6)=   0.000000

     crystal axes: (cart. coord. in units of alat)
               a(1) = (   1.000000   0.000000   0.000000 )  
               a(2) = (   0.000000   1.000000   0.000000 )  
               a(3) = (   0.000000   0.000000   1.000000 )  

     reciprocal axes: (cart. coord. in units 2 pi/alat)
               b(1) = (  1.000000  0.000000  0.000000 )  
               b(2) = (  0.000000  1.000000  0.000000 )  
               b(3) = (  0.000000  0.000000  1.000000 )  


     PseudoPot. # 1 for Ni read from file:
     /opt/QEpot/SSSP_efficiency_pseudos/ni_pbe_v1.4.uspp.F.UPF
     MD5 check sum: 1ee80287db30b12d2bc1f57a5b5d6409
     Pseudo is Ultrasoft + core correction, Zval = 18.0
     Generated by new atomic code, or converted to UPF format
     Using radial grid of  865 points,  6 beta functions with: 
                l(1) =   0
                l(2) =   0
                l(3) =   1
                l(4) =   1
                l(5) =   2
                l(6) =   2
     Q(r) pseudized with 10 coefficients,  rinner =    0.980   0.980   0.980
                                                       0.980   0.980

     PseudoPot. # 2 for Fe read from file:
     /opt/QEpot/SSSP_efficiency_pseudos/Fe.pbe-spn-kjpaw_psl.0.2.1.UPF
     MD5 check sum: e86618425769142926afa95317d90200
     Pseudo is Projector augmented-wave + core cor, Zval = 16.0
     Generated using "atomic" code by A. Dal Corso  v.5.0.99 svn rev. 10869
     Shape of augmentation charge: PSQ
     Using radial grid of 1191 points,  6 beta functions with: 
                l(1) =   0
                l(2) =   0
                l(3) =   1
                l(4) =   1
                l(5) =   2
                l(6) =   2
     Q(r) pseudized with 0 coefficients 


     atomic species   valence    mass     pseudopotential
        Ni            18.00    58.69300     Ni( 1.00)
        Fe            16.00    55.84500     Fe( 1.00)

      cell mass =  34.81538 AMU 

     Starting magnetic structure 
     atomic species   magnetization
        Ni           0.000
        Fe          -0.000

     No symmetry found



   Cartesian axes

     site n.     atom                  positions (alat units)
         1           Ni  tau(   1) = (   0.0000000   0.5000000   0.0000000  )
         2           Fe  tau(   2) = (   0.5000000   0.0000000   0.5000000  )
         3           Ni  tau(   3) = (   0.0000000   0.0000000   0.5000000  )
         4           Fe  tau(   4) = (   0.5000000   0.5000000   0.0000000  )
         5           Ni  tau(   5) = (   0.5000000   0.0000000   0.0000000  )
         6           Fe  tau(   6) = (   0.0000000   0.5000000   0.5000000  )
         7           Ni  tau(   7) = (   0.5000000   0.5000000   0.5000000  )
         8           Fe  tau(   8) = (   0.0000000   0.0000000   0.0000000  )

     number of k points=    63  Gaussian smearing, width (Ry)=  0.0100
                       cart. coord. in units 2pi/alat
        k(    1) = (   0.0000000   0.0000000   0.0000000), wk =   0.0080000
        k(    2) = (   0.0000000   0.0000000   0.2000000), wk =   0.0160000
        k(    3) = (   0.0000000   0.0000000   0.4000000), wk =   0.0160000
        k(    4) = (   0.0000000   0.2000000   0.0000000), wk =   0.0160000
        k(    5) = (   0.0000000   0.2000000   0.2000000), wk =   0.0160000
        k(    6) = (   0.0000000   0.2000000   0.4000000), wk =   0.0160000
        k(    7) = (   0.0000000   0.2000000  -0.4000000), wk =   0.0160000
        k(    8) = (   0.0000000   0.2000000  -0.2000000), wk =   0.0160000
        k(    9) = (   0.0000000   0.4000000   0.0000000), wk =   0.0160000
        k(   10) = (   0.0000000   0.4000000   0.2000000), wk =   0.0160000
        k(   11) = (   0.0000000   0.4000000   0.4000000), wk =   0.0160000
        k(   12) = (   0.0000000   0.4000000  -0.4000000), wk =   0.0160000
        k(   13) = (   0.0000000   0.4000000  -0.2000000), wk =   0.0160000
        k(   14) = (   0.2000000   0.0000000   0.0000000), wk =   0.0160000
        k(   15) = (   0.2000000   0.0000000   0.2000000), wk =   0.0160000
        k(   16) = (   0.2000000   0.0000000   0.4000000), wk =   0.0160000
        k(   17) = (   0.2000000   0.0000000  -0.4000000), wk =   0.0160000
        k(   18) = (   0.2000000   0.0000000  -0.2000000), wk =   0.0160000
        k(   19) = (   0.2000000   0.2000000   0.0000000), wk =   0.0160000
        k(   20) = (   0.2000000   0.2000000   0.2000000), wk =   0.0160000
        k(   21) = (   0.2000000   0.2000000   0.4000000), wk =   0.0160000
        k(   22) = (   0.2000000   0.2000000  -0.4000000), wk =   0.0160000
        k(   23) = (   0.2000000   0.2000000  -0.2000000), wk =   0.0160000
        k(   24) = (   0.2000000   0.4000000   0.0000000), wk =   0.0160000
        k(   25) = (   0.2000000   0.4000000   0.2000000), wk =   0.0160000
        k(   26) = (   0.2000000   0.4000000   0.4000000), wk =   0.0160000
        k(   27) = (   0.2000000   0.4000000  -0.4000000), wk =   0.0160000
        k(   28) = (   0.2000000   0.4000000  -0.2000000), wk =   0.0160000
        k(   29) = (   0.2000000  -0.4000000   0.0000000), wk =   0.0160000
        k(   30) = (   0.2000000  -0.4000000   0.2000000), wk =   0.0160000
        k(   31) = (   0.2000000  -0.4000000   0.4000000), wk =   0.0160000
        k(   32) = (   0.2000000  -0.4000000  -0.4000000), wk =   0.0160000
        k(   33) = (   0.2000000  -0.4000000  -0.2000000), wk =   0.0160000
        k(   34) = (   0.2000000  -0.2000000   0.0000000), wk =   0.0160000
        k(   35) = (   0.2000000  -0.2000000   0.2000000), wk =   0.0160000
        k(   36) = (   0.2000000  -0.2000000   0.4000000), wk =   0.0160000
        k(   37) = (   0.2000000  -0.2000000  -0.4000000), wk =   0.0160000
        k(   38) = (   0.2000000  -0.2000000  -0.2000000), wk =   0.0160000
        k(   39) = (   0.4000000   0.0000000   0.0000000), wk =   0.0160000
        k(   40) = (   0.4000000   0.0000000   0.2000000), wk =   0.0160000
        k(   41) = (   0.4000000   0.0000000   0.4000000), wk =   0.0160000
        k(   42) = (   0.4000000   0.0000000  -0.4000000), wk =   0.0160000
        k(   43) = (   0.4000000   0.0000000  -0.2000000), wk =   0.0160000
        k(   44) = (   0.4000000   0.2000000   0.0000000), wk =   0.0160000
        k(   45) = (   0.4000000   0.2000000   0.2000000), wk =   0.0160000
        k(   46) = (   0.4000000   0.2000000   0.4000000), wk =   0.0160000
        k(   47) = (   0.4000000   0.2000000  -0.4000000), wk =   0.0160000
        k(   48) = (   0.4000000   0.2000000  -0.2000000), wk =   0.0160000
        k(   49) = (   0.4000000   0.4000000   0.0000000), wk =   0.0160000
        k(   50) = (   0.4000000   0.4000000   0.2000000), wk =   0.0160000
        k(   51) = (   0.4000000   0.4000000   0.4000000), wk =   0.0160000
        k(   52) = (   0.4000000   0.4000000  -0.4000000), wk =   0.0160000
        k(   53) = (   0.4000000   0.4000000  -0.2000000), wk =   0.0160000
        k(   54) = (   0.4000000  -0.4000000   0.0000000), wk =   0.0160000
        k(   55) = (   0.4000000  -0.4000000   0.2000000), wk =   0.0160000
        k(   56) = (   0.4000000  -0.4000000   0.4000000), wk =   0.0160000
        k(   57) = (   0.4000000  -0.4000000  -0.4000000), wk =   0.0160000
        k(   58) = (   0.4000000  -0.4000000  -0.2000000), wk =   0.0160000
        k(   59) = (   0.4000000  -0.2000000   0.0000000), wk =   0.0160000
        k(   60) = (   0.4000000  -0.2000000   0.2000000), wk =   0.0160000
        k(   61) = (   0.4000000  -0.2000000   0.4000000), wk =   0.0160000
        k(   62) = (   0.4000000  -0.2000000  -0.4000000), wk =   0.0160000
        k(   63) = (   0.4000000  -0.2000000  -0.2000000), wk =   0.0160000

     Dense  grid:   395903 G-vectors     FFT dimensions: (  96,  96,  96)

     Smooth grid:    76237 G-vectors     FFT dimensions: (  54,  54,  54)

     Estimated max dynamical RAM per process >     137.52 MB

     Estimated total dynamical RAM >       3.22 GB

     Check: negative core charge=   -0.000010
     Generating pointlists ...
     new r_m :   0.2063 (alat units)  1.7958 (a.u.) for type    1
     new r_m :   0.2063 (alat units)  1.7958 (a.u.) for type    2

     Initial potential from superposition of free atoms

     starting charge  127.99825, renormalised to  136.00000
     Starting wfcs are  104 randomized atomic wfcs
     Checking if some PAW data can be deallocated... 

     total cpu time spent up to now is       20.9 secs

     Self-consistent Calculation

     iteration #  1     ecut=    90.00 Ry     beta= 0.20
     Davidson diagonalization with overlap
     ethr =  1.00E-02,  avg # of iterations =  2.9

     total cpu time spent up to now is       72.0 secs

     total energy              =   -2672.14028741 Ry
     estimated scf accuracy    <      99.88724800 Ry

     total magnetization       =    -0.00 Bohr mag/cell
     absolute magnetization    =     0.01 Bohr mag/cell

     iteration #  2     ecut=    90.00 Ry     beta= 0.20
     Davidson diagonalization with overlap
     ethr =  1.00E-02,  avg # of iterations =  3.9

     total cpu time spent up to now is      128.3 secs

     total energy              =   -2685.98915102 Ry
     estimated scf accuracy    <      62.35575638 Ry

     total magnetization       =    -0.00 Bohr mag/cell
     absolute magnetization    =     0.01 Bohr mag/cell

     iteration #  3     ecut=    90.00 Ry     beta= 0.20
     Davidson diagonalization with overlap
     ethr =  1.00E-02,  avg # of iterations =  2.9

     total cpu time spent up to now is      172.2 secs

     total energy              =   -2688.50739398 Ry
     estimated scf accuracy    <       3.82133729 Ry

     total magnetization       =    -0.01 Bohr mag/cell
     absolute magnetization    =     0.02 Bohr mag/cell

     iteration #  4     ecut=    90.00 Ry     beta= 0.20
     Davidson diagonalization with overlap
     ethr =  2.81E-03,  avg # of iterations =  3.4

     total cpu time spent up to now is      218.1 secs

     total energy              =   -2687.76746168 Ry
     estimated scf accuracy    <      21.44963208 Ry

     total magnetization       =    -0.01 Bohr mag/cell
     absolute magnetization    =     0.01 Bohr mag/cell

     iteration #  5     ecut=    90.00 Ry     beta= 0.20
     Davidson diagonalization with overlap
     ethr =  2.81E-03,  avg # of iterations =  2.0

     total cpu time spent up to now is      257.8 secs

     total energy              =   -2689.65014768 Ry
     estimated scf accuracy    <       3.30994802 Ry

     total magnetization       =    -0.01 Bohr mag/cell
     absolute magnetization    =     0.01 Bohr mag/cell

     iteration #  6     ecut=    90.00 Ry     beta= 0.20
     Davidson diagonalization with overlap
     ethr =  2.43E-03,  avg # of iterations =  1.0

     total cpu time spent up to now is      290.8 secs

     total energy              =   -2689.59648032 Ry
     estimated scf accuracy    <       2.73661852 Ry

     total magnetization       =    -0.01 Bohr mag/cell
     absolute magnetization    =     0.01 Bohr mag/cell

     iteration #  7     ecut=    90.00 Ry     beta= 0.20
     Davidson diagonalization with overlap
     ethr =  2.01E-03,  avg # of iterations =  1.0

     total cpu time spent up to now is      323.7 secs

     total energy              =   -2689.47892383 Ry
     estimated scf accuracy    <       1.21420928 Ry

     total magnetization       =    -0.01 Bohr mag/cell
     absolute magnetization    =     0.01 Bohr mag/cell

     iteration #  8     ecut=    90.00 Ry     beta= 0.20
     Davidson diagonalization with overlap
     ethr =  8.93E-04,  avg # of iterations =  1.1

     total cpu time spent up to now is      356.9 secs

     total energy              =   -2689.54845824 Ry
     estimated scf accuracy    <       0.08186272 Ry

     total magnetization       =    -0.02 Bohr mag/cell
     absolute magnetization    =     0.02 Bohr mag/cell

     iteration #  9     ecut=    90.00 Ry     beta= 0.20
     Davidson diagonalization with overlap
     ethr =  6.02E-05,  avg # of iterations =  3.5

     total cpu time spent up to now is      395.8 secs

     total energy              =   -2689.54868675 Ry
     estimated scf accuracy    <       0.13538513 Ry

     total magnetization       =    -0.02 Bohr mag/cell
     absolute magnetization    =     0.02 Bohr mag/cell

     iteration # 10     ecut=    90.00 Ry     beta= 0.20
     Davidson diagonalization with overlap
     ethr =  6.02E-05,  avg # of iterations =  1.1

     total cpu time spent up to now is      429.1 secs

     total energy              =   -2689.54950670 Ry
     estimated scf accuracy    <       0.04310171 Ry

     total magnetization       =    -0.02 Bohr mag/cell
     absolute magnetization    =     0.02 Bohr mag/cell

     iteration # 11     ecut=    90.00 Ry     beta= 0.20
     Davidson diagonalization with overlap
     ethr =  3.17E-05,  avg # of iterations =  2.0

     total cpu time spent up to now is      464.2 secs

     total energy              =   -2689.55061398 Ry
     estimated scf accuracy    <       0.01114559 Ry

     total magnetization       =    -0.02 Bohr mag/cell
     absolute magnetization    =     0.03 Bohr mag/cell

     iteration # 12     ecut=    90.00 Ry     beta= 0.20
     Davidson diagonalization with overlap
     ethr =  8.20E-06,  avg # of iterations =  2.1

     total cpu time spent up to now is      500.2 secs

     total energy              =   -2689.55003542 Ry
     estimated scf accuracy    <       0.06909055 Ry

     total magnetization       =    -0.03 Bohr mag/cell
     absolute magnetization    =     0.03 Bohr mag/cell

     iteration # 13     ecut=    90.00 Ry     beta= 0.20
     Davidson diagonalization with overlap
     ethr =  8.20E-06,  avg # of iterations =  1.0

     total cpu time spent up to now is      533.1 secs

     total energy              =   -2689.55061284 Ry
     estimated scf accuracy    <       0.00285656 Ry

     total magnetization       =    -0.03 Bohr mag/cell
     absolute magnetization    =     0.03 Bohr mag/cell

     iteration # 14     ecut=    90.00 Ry     beta= 0.20
     Davidson diagonalization with overlap
     ethr =  2.10E-06,  avg # of iterations =  2.7

     total cpu time spent up to now is      572.8 secs

     total energy              =   -2689.54992018 Ry
     estimated scf accuracy    <       0.02101633 Ry

     total magnetization       =    -0.05 Bohr mag/cell
     absolute magnetization    =     0.05 Bohr mag/cell

     iteration # 15     ecut=    90.00 Ry     beta= 0.20
     Davidson diagonalization with overlap
     ethr =  2.10E-06,  avg # of iterations =  1.8

     total cpu time spent up to now is      608.5 secs

     total energy              =   -2689.54979731 Ry
     estimated scf accuracy    <       0.06125370 Ry

     total magnetization       =    -0.04 Bohr mag/cell
     absolute magnetization    =     0.04 Bohr mag/cell

     iteration # 16     ecut=    90.00 Ry     beta= 0.20
     Davidson diagonalization with overlap
     ethr =  2.10E-06,  avg # of iterations =  1.2

     total cpu time spent up to now is      642.3 secs

     total energy              =   -2689.55035417 Ry
     estimated scf accuracy    <       0.01023678 Ry

     total magnetization       =    -0.05 Bohr mag/cell
     absolute magnetization    =     0.06 Bohr mag/cell

     iteration # 17     ecut=    90.00 Ry     beta= 0.20
     Davidson diagonalization with overlap
     ethr =  2.10E-06,  avg # of iterations =  1.0

     total cpu time spent up to now is      675.2 secs

     total energy              =   -2689.55049920 Ry
     estimated scf accuracy    <       0.00774400 Ry

     total magnetization       =    -0.05 Bohr mag/cell
     absolute magnetization    =     0.05 Bohr mag/cell

     iteration # 18     ecut=    90.00 Ry     beta= 0.20
     Davidson diagonalization with overlap
     ethr =  2.10E-06,  avg # of iterations =  1.0

     total cpu time spent up to now is      708.1 secs

     total energy              =   -2689.55030747 Ry
     estimated scf accuracy    <       0.02607085 Ry

     total magnetization       =    -0.06 Bohr mag/cell
     absolute magnetization    =     0.07 Bohr mag/cell

     iteration # 19     ecut=    90.00 Ry     beta= 0.20
     Davidson diagonalization with overlap
     ethr =  2.10E-06,  avg # of iterations =  1.0

     total cpu time spent up to now is      741.0 secs

     total energy              =   -2689.55059290 Ry
     estimated scf accuracy    <       0.00238399 Ry

     total magnetization       =    -0.06 Bohr mag/cell
     absolute magnetization    =     0.07 Bohr mag/cell

     iteration # 20     ecut=    90.00 Ry     beta= 0.20
     Davidson diagonalization with overlap
     ethr =  1.75E-06,  avg # of iterations =  1.1

     total cpu time spent up to now is      774.0 secs

     total energy              =   -2689.55032849 Ry
     estimated scf accuracy    <       0.02713321 Ry

     total magnetization       =    -0.07 Bohr mag/cell
     absolute magnetization    =     0.08 Bohr mag/cell

     iteration # 21     ecut=    90.00 Ry     beta= 0.20
     Davidson diagonalization with overlap
     ethr =  1.75E-06,  avg # of iterations =  1.0

     total cpu time spent up to now is      806.9 secs

     total energy              =   -2689.55071472 Ry
     estimated scf accuracy    <       0.00061589 Ry

     total magnetization       =    -0.08 Bohr mag/cell
     absolute magnetization    =     0.09 Bohr mag/cell

     iteration # 22     ecut=    90.00 Ry     beta= 0.20
     Davidson diagonalization with overlap
     ethr =  4.53E-07,  avg # of iterations =  1.0

     total cpu time spent up to now is      839.8 secs

     total energy              =   -2689.55068127 Ry
     estimated scf accuracy    <       0.00083912 Ry

     total magnetization       =    -0.10 Bohr mag/cell
     absolute magnetization    =     0.11 Bohr mag/cell

     iteration # 23     ecut=    90.00 Ry     beta= 0.20
     Davidson diagonalization with overlap
     ethr =  4.53E-07,  avg # of iterations =  1.0

     total cpu time spent up to now is      872.6 secs

     total energy              =   -2689.55063000 Ry
     estimated scf accuracy    <       0.00542842 Ry

     total magnetization       =    -0.11 Bohr mag/cell
     absolute magnetization    =     0.12 Bohr mag/cell

     iteration # 24     ecut=    90.00 Ry     beta= 0.20
     Davidson diagonalization with overlap
     ethr =  4.53E-07,  avg # of iterations =  1.1

     total cpu time spent up to now is      905.9 secs

     total energy              =   -2689.55064461 Ry
     estimated scf accuracy    <       0.00550929 Ry

     total magnetization       =    -0.12 Bohr mag/cell
     absolute magnetization    =     0.14 Bohr mag/cell

     iteration # 25     ecut=    90.00 Ry     beta= 0.20
     Davidson diagonalization with overlap
     ethr =  4.53E-07,  avg # of iterations =  1.0

     total cpu time spent up to now is      938.8 secs

     total energy              =   -2689.55073264 Ry
     estimated scf accuracy    <       0.00058496 Ry

     total magnetization       =    -0.13 Bohr mag/cell
     absolute magnetization    =     0.14 Bohr mag/cell

     iteration # 26     ecut=    90.00 Ry     beta= 0.20
     Davidson diagonalization with overlap
     ethr =  4.30E-07,  avg # of iterations =  1.1

     total cpu time spent up to now is      971.8 secs

     total energy              =   -2689.55072631 Ry
     estimated scf accuracy    <       0.00154946 Ry

     total magnetization       =    -0.14 Bohr mag/cell
     absolute magnetization    =     0.16 Bohr mag/cell

     iteration # 27     ecut=    90.00 Ry     beta= 0.20
     Davidson diagonalization with overlap
     ethr =  4.30E-07,  avg # of iterations =  1.0

     total cpu time spent up to now is     1004.7 secs

     total energy              =   -2689.55074962 Ry
     estimated scf accuracy    <       0.00070751 Ry

     total magnetization       =    -0.16 Bohr mag/cell
     absolute magnetization    =     0.17 Bohr mag/cell

     iteration # 28     ecut=    90.00 Ry     beta= 0.20
     Davidson diagonalization with overlap
     ethr =  4.30E-07,  avg # of iterations =  1.1

     total cpu time spent up to now is     1037.7 secs

     total energy              =   -2689.55076014 Ry
     estimated scf accuracy    <       0.00064496 Ry

     total magnetization       =    -0.18 Bohr mag/cell
     absolute magnetization    =     0.20 Bohr mag/cell

     iteration # 29     ecut=    90.00 Ry     beta= 0.20
     Davidson diagonalization with overlap
     ethr =  4.30E-07,  avg # of iterations =  1.0

     total cpu time spent up to now is     1070.6 secs

     total energy              =   -2689.55077400 Ry
     estimated scf accuracy    <       0.00022470 Ry

     total magnetization       =    -0.19 Bohr mag/cell
     absolute magnetization    =     0.21 Bohr mag/cell

     iteration # 30     ecut=    90.00 Ry     beta= 0.20
     Davidson diagonalization with overlap
     ethr =  1.65E-07,  avg # of iterations =  1.1

     total cpu time spent up to now is     1103.6 secs

     total energy              =   -2689.55078457 Ry
     estimated scf accuracy    <       0.00121722 Ry

     total magnetization       =    -0.19 Bohr mag/cell
     absolute magnetization    =     0.22 Bohr mag/cell

     iteration # 31     ecut=    90.00 Ry     beta= 0.20
     Davidson diagonalization with overlap
     ethr =  1.65E-07,  avg # of iterations =  1.0

     total cpu time spent up to now is     1136.5 secs

     total energy              =   -2689.55080323 Ry
     estimated scf accuracy    <       0.00138384 Ry

     total magnetization       =    -0.24 Bohr mag/cell
     absolute magnetization    =     0.26 Bohr mag/cell

     iteration # 32     ecut=    90.00 Ry     beta= 0.20
     Davidson diagonalization with overlap
     ethr =  1.65E-07,  avg # of iterations =  1.0

     total cpu time spent up to now is     1169.3 secs

     total energy              =   -2689.55081536 Ry
     estimated scf accuracy    <       0.00069004 Ry

     total magnetization       =    -0.25 Bohr mag/cell
     absolute magnetization    =     0.27 Bohr mag/cell

     iteration # 33     ecut=    90.00 Ry     beta= 0.20
     Davidson diagonalization with overlap
     ethr =  1.65E-07,  avg # of iterations =  1.0

     total cpu time spent up to now is     1202.2 secs

     total energy              =   -2689.55081970 Ry
     estimated scf accuracy    <       0.00040890 Ry

     total magnetization       =    -0.25 Bohr mag/cell
     absolute magnetization    =     0.28 Bohr mag/cell

     iteration # 34     ecut=    90.00 Ry     beta= 0.20
     Davidson diagonalization with overlap
     ethr =  1.65E-07,  avg # of iterations =  1.0

     total cpu time spent up to now is     1235.0 secs

     total energy              =   -2689.55082612 Ry
     estimated scf accuracy    <       0.00044222 Ry

     total magnetization       =    -0.25 Bohr mag/cell
     absolute magnetization    =     0.28 Bohr mag/cell

     iteration # 35     ecut=    90.00 Ry     beta= 0.20
     Davidson diagonalization with overlap
     ethr =  1.65E-07,  avg # of iterations =  2.0

     total cpu time spent up to now is     1273.8 secs

     total energy              =   -2689.55071188 Ry
     estimated scf accuracy    <       0.01286688 Ry

     total magnetization       =    -0.32 Bohr mag/cell
     absolute magnetization    =     0.36 Bohr mag/cell

     iteration # 36     ecut=    90.00 Ry     beta= 0.20
     Davidson diagonalization with overlap
     ethr =  1.65E-07,  avg # of iterations =  1.9

     total cpu time spent up to now is     1310.4 secs

     total energy              =   -2689.55087932 Ry
     estimated scf accuracy    <       0.00256136 Ry

     total magnetization       =    -0.33 Bohr mag/cell
     absolute magnetization    =     0.37 Bohr mag/cell

     iteration # 37     ecut=    90.00 Ry     beta= 0.20
     Davidson diagonalization with overlap
     ethr =  1.65E-07,  avg # of iterations =  1.1

     total cpu time spent up to now is     1343.3 secs

     total energy              =   -2689.55091453 Ry
     estimated scf accuracy    <       0.00090836 Ry

     total magnetization       =    -0.34 Bohr mag/cell
     absolute magnetization    =     0.38 Bohr mag/cell

     iteration # 38     ecut=    90.00 Ry     beta= 0.20
     Davidson diagonalization with overlap
     ethr =  1.65E-07,  avg # of iterations =  1.0

     total cpu time spent up to now is     1376.1 secs

     total energy              =   -2689.55086020 Ry
     estimated scf accuracy    <       0.00139159 Ry

     total magnetization       =    -0.34 Bohr mag/cell
     absolute magnetization    =     0.38 Bohr mag/cell

     iteration # 39     ecut=    90.00 Ry     beta= 0.20
     Davidson diagonalization with overlap
     ethr =  1.65E-07,  avg # of iterations =  1.0

     total cpu time spent up to now is     1408.8 secs

     total energy              =   -2689.55094556 Ry
     estimated scf accuracy    <       0.00133536 Ry

     total magnetization       =    -0.31 Bohr mag/cell
     absolute magnetization    =     0.34 Bohr mag/cell

     iteration # 40     ecut=    90.00 Ry     beta= 0.20
     Davidson diagonalization with overlap
     ethr =  1.65E-07,  avg # of iterations =  1.6

     total cpu time spent up to now is     1444.7 secs

     total energy              =   -2689.55108651 Ry
     estimated scf accuracy    <       0.00122505 Ry

     total magnetization       =    -0.47 Bohr mag/cell
     absolute magnetization    =     0.53 Bohr mag/cell

     iteration # 41     ecut=    90.00 Ry     beta= 0.20
     Davidson diagonalization with overlap
     ethr =  1.65E-07,  avg # of iterations =  1.1

     total cpu time spent up to now is     1477.6 secs

     total energy              =   -2689.55104978 Ry
     estimated scf accuracy    <       0.00251221 Ry

     total magnetization       =    -0.46 Bohr mag/cell
     absolute magnetization    =     0.52 Bohr mag/cell

     iteration # 42     ecut=    90.00 Ry     beta= 0.20
     Davidson diagonalization with overlap
     ethr =  1.65E-07,  avg # of iterations =  1.1

     total cpu time spent up to now is     1510.6 secs

     total energy              =   -2689.55111371 Ry
     estimated scf accuracy    <       0.00260692 Ry

     total magnetization       =    -0.47 Bohr mag/cell
     absolute magnetization    =     0.52 Bohr mag/cell

     iteration # 43     ecut=    90.00 Ry     beta= 0.20
     Davidson diagonalization with overlap
     ethr =  1.65E-07,  avg # of iterations =  1.0

     total cpu time spent up to now is     1543.4 secs

     total energy              =   -2689.55113066 Ry
     estimated scf accuracy    <       0.00432195 Ry

     total magnetization       =    -0.51 Bohr mag/cell
     absolute magnetization    =     0.56 Bohr mag/cell

     iteration # 44     ecut=    90.00 Ry     beta= 0.20
     Davidson diagonalization with overlap
     ethr =  1.65E-07,  avg # of iterations =  1.2

     total cpu time spent up to now is     1576.4 secs

     total energy              =   -2689.55123713 Ry
     estimated scf accuracy    <       0.00460934 Ry

     total magnetization       =    -0.51 Bohr mag/cell
     absolute magnetization    =     0.57 Bohr mag/cell

     iteration # 45     ecut=    90.00 Ry     beta= 0.20
     Davidson diagonalization with overlap
     ethr =  1.65E-07,  avg # of iterations =  1.0

     total cpu time spent up to now is     1609.1 secs

     total energy              =   -2689.55138454 Ry
     estimated scf accuracy    <       0.00184522 Ry

     total magnetization       =    -0.60 Bohr mag/cell
     absolute magnetization    =     0.66 Bohr mag/cell

     iteration # 46     ecut=    90.00 Ry     beta= 0.20
     Davidson diagonalization with overlap
     ethr =  1.65E-07,  avg # of iterations =  2.0

     total cpu time spent up to now is     1650.3 secs

     total energy              =   -2689.55139377 Ry
     estimated scf accuracy    <       0.00576577 Ry

     total magnetization       =    -0.68 Bohr mag/cell
     absolute magnetization    =     0.75 Bohr mag/cell

     iteration # 47     ecut=    90.00 Ry     beta= 0.20
     Davidson diagonalization with overlap
     ethr =  1.65E-07,  avg # of iterations =  2.1

     total cpu time spent up to now is     1693.0 secs

     total energy              =   -2689.55092207 Ry
     estimated scf accuracy    <       0.05810670 Ry

     total magnetization       =    -0.69 Bohr mag/cell
     absolute magnetization    =     0.77 Bohr mag/cell

     iteration # 48     ecut=    90.00 Ry     beta= 0.20
     Davidson diagonalization with overlap
     ethr =  1.65E-07,  avg # of iterations =  2.1

     total cpu time spent up to now is     1734.0 secs

     total energy              =   -2689.55153707 Ry
     estimated scf accuracy    <       0.02381798 Ry

     total magnetization       =    -0.78 Bohr mag/cell
     absolute magnetization    =     0.87 Bohr mag/cell

     iteration # 49     ecut=    90.00 Ry     beta= 0.20
     Davidson diagonalization with overlap
     ethr =  1.65E-07,  avg # of iterations =  2.0

     total cpu time spent up to now is     1772.1 secs

     total energy              =   -2689.55174644 Ry
     estimated scf accuracy    <       0.00746952 Ry

     total magnetization       =    -0.79 Bohr mag/cell
     absolute magnetization    =     0.88 Bohr mag/cell

     iteration # 50     ecut=    90.00 Ry     beta= 0.20
     Davidson diagonalization with overlap
     ethr =  1.65E-07,  avg # of iterations =  1.0

     total cpu time spent up to now is     1805.0 secs

     total energy              =   -2689.55172720 Ry
     estimated scf accuracy    <       0.00465124 Ry

     total magnetization       =    -0.79 Bohr mag/cell
     absolute magnetization    =     0.87 Bohr mag/cell

     iteration # 51     ecut=    90.00 Ry     beta= 0.20
     Davidson diagonalization with overlap
     ethr =  1.65E-07,  avg # of iterations =  3.4

     total cpu time spent up to now is     1854.8 secs

     total energy              =   -2689.55161117 Ry
     estimated scf accuracy    <       0.04071681 Ry

     total magnetization       =    -0.97 Bohr mag/cell
     absolute magnetization    =     1.08 Bohr mag/cell

     iteration # 52     ecut=    90.00 Ry     beta= 0.20
     Davidson diagonalization with overlap
     ethr =  1.65E-07,  avg # of iterations =  3.2

     total cpu time spent up to now is     1902.2 secs

     total energy              =   -2689.55241192 Ry
     estimated scf accuracy    <       0.01105872 Ry

     total magnetization       =    -1.07 Bohr mag/cell
     absolute magnetization    =     1.18 Bohr mag/cell

     iteration # 53     ecut=    90.00 Ry     beta= 0.20
     Davidson diagonalization with overlap
     ethr =  1.65E-07,  avg # of iterations =  2.4

     total cpu time spent up to now is     1944.9 secs

     total energy              =   -2689.55178781 Ry
     estimated scf accuracy    <       0.06250827 Ry

     total magnetization       =    -1.03 Bohr mag/cell
     absolute magnetization    =     1.15 Bohr mag/cell

     iteration # 54     ecut=    90.00 Ry     beta= 0.20
     Davidson diagonalization with overlap
     ethr =  1.65E-07,  avg # of iterations =  2.1

     total cpu time spent up to now is     1985.9 secs

     total energy              =   -2689.55271762 Ry
     estimated scf accuracy    <       0.00933123 Ry

     total magnetization       =    -1.09 Bohr mag/cell
     absolute magnetization    =     1.21 Bohr mag/cell

     iteration # 55     ecut=    90.00 Ry     beta= 0.20
     Davidson diagonalization with overlap
     ethr =  1.65E-07,  avg # of iterations =  1.4

     total cpu time spent up to now is     2020.5 secs

     total energy              =   -2689.55292221 Ry
     estimated scf accuracy    <       0.02549179 Ry

     total magnetization       =    -1.08 Bohr mag/cell
     absolute magnetization    =     1.20 Bohr mag/cell

     iteration # 56     ecut=    90.00 Ry     beta= 0.20
     Davidson diagonalization with overlap
     ethr =  1.65E-07,  avg # of iterations =  4.1

     total cpu time spent up to now is     2071.8 secs

     total energy              =   -2689.55349598 Ry
     estimated scf accuracy    <       0.04292040 Ry

     total magnetization       =    -1.38 Bohr mag/cell
     absolute magnetization    =     1.55 Bohr mag/cell

     iteration # 57     ecut=    90.00 Ry     beta= 0.20
     Davidson diagonalization with overlap
     ethr =  1.65E-07,  avg # of iterations =  2.8

     total cpu time spent up to now is     2117.5 secs

     total energy              =   -2689.55460850 Ry
     estimated scf accuracy    <       0.01105054 Ry

     total magnetization       =    -1.48 Bohr mag/cell
     absolute magnetization    =     1.66 Bohr mag/cell

     iteration # 58     ecut=    90.00 Ry     beta= 0.20
     Davidson diagonalization with overlap
     ethr =  1.65E-07,  avg # of iterations =  2.2

     total cpu time spent up to now is     2158.7 secs

     total energy              =   -2689.55141860 Ry
     estimated scf accuracy    <       0.06082122 Ry

     total magnetization       =    -1.48 Bohr mag/cell
     absolute magnetization    =     1.66 Bohr mag/cell

     iteration # 59     ecut=    90.00 Ry     beta= 0.20
     Davidson diagonalization with overlap
     ethr =  1.65E-07,  avg # of iterations =  2.9

     total cpu time spent up to now is     2204.9 secs

     total energy              =   -2689.55241273 Ry
     estimated scf accuracy    <       0.04162148 Ry

     total magnetization       =    -1.05 Bohr mag/cell
     absolute magnetization    =     1.17 Bohr mag/cell

     iteration # 60     ecut=    90.00 Ry     beta= 0.20
     Davidson diagonalization with overlap
     ethr =  1.65E-07,  avg # of iterations =  4.1

     total cpu time spent up to now is     2262.3 secs

     total energy              =   -2689.55358432 Ry
     estimated scf accuracy    <       0.20226113 Ry

     total magnetization       =    -1.62 Bohr mag/cell
     absolute magnetization    =     1.82 Bohr mag/cell

     iteration # 61     ecut=    90.00 Ry     beta= 0.20
     Davidson diagonalization with overlap
     ethr =  1.65E-07,  avg # of iterations =  3.9

     total cpu time spent up to now is     2315.9 secs

     total energy              =   -2689.55480382 Ry
     estimated scf accuracy    <       0.18048966 Ry

     total magnetization       =    -1.90 Bohr mag/cell
     absolute magnetization    =     2.13 Bohr mag/cell

     iteration # 62     ecut=    90.00 Ry     beta= 0.20
     Davidson diagonalization with overlap
     ethr =  1.65E-07,  avg # of iterations =  2.8

     total cpu time spent up to now is     2361.2 secs

     total energy              =   -2689.55696535 Ry
     estimated scf accuracy    <       0.02354020 Ry

     total magnetization       =    -1.92 Bohr mag/cell
     absolute magnetization    =     2.14 Bohr mag/cell

     iteration # 63     ecut=    90.00 Ry     beta= 0.20
     Davidson diagonalization with overlap
     ethr =  1.65E-07,  avg # of iterations =  2.2

     total cpu time spent up to now is     2404.6 secs

     total energy              =   -2689.55672042 Ry
     estimated scf accuracy    <       0.03013535 Ry

     total magnetization       =    -1.92 Bohr mag/cell
     absolute magnetization    =     2.15 Bohr mag/cell

     iteration # 64     ecut=    90.00 Ry     beta= 0.20
     Davidson diagonalization with overlap
     ethr =  1.65E-07,  avg # of iterations =  2.0

     total cpu time spent up to now is     2446.8 secs

     total energy              =   -2689.55762446 Ry
     estimated scf accuracy    <       0.03911149 Ry

     total magnetization       =    -1.95 Bohr mag/cell
     absolute magnetization    =     2.18 Bohr mag/cell

     iteration # 65     ecut=    90.00 Ry     beta= 0.20
     Davidson diagonalization with overlap
     ethr =  1.65E-07,  avg # of iterations =  5.8

     total cpu time spent up to now is     2513.1 secs

     total energy              =   -2689.55656775 Ry
     estimated scf accuracy    <       0.15155923 Ry

     total magnetization       =    -2.31 Bohr mag/cell
     absolute magnetization    =     2.61 Bohr mag/cell

     iteration # 66     ecut=    90.00 Ry     beta= 0.20
     Davidson diagonalization with overlap
     ethr =  1.65E-07,  avg # of iterations =  4.9

     total cpu time spent up to now is     2575.2 secs

     total energy              =   -2689.55539975 Ry
     estimated scf accuracy    <       0.40803203 Ry

     total magnetization       =    -2.26 Bohr mag/cell
     absolute magnetization    =     2.59 Bohr mag/cell

     iteration # 67     ecut=    90.00 Ry     beta= 0.20
     Davidson diagonalization with overlap
     ethr =  1.65E-07,  avg # of iterations =  4.0

     total cpu time spent up to now is     2629.3 secs

     total energy              =   -2689.56174324 Ry
     estimated scf accuracy    <       0.04600978 Ry

     total magnetization       =    -2.46 Bohr mag/cell
     absolute magnetization    =     2.77 Bohr mag/cell

     iteration # 68     ecut=    90.00 Ry     beta= 0.20
     Davidson diagonalization with overlap
     ethr =  1.65E-07,  avg # of iterations =  4.1

     total cpu time spent up to now is     2684.4 secs

     total energy              =   -2689.56237536 Ry
     estimated scf accuracy    <       0.11616758 Ry

     total magnetization       =    -2.69 Bohr mag/cell
     absolute magnetization    =     3.01 Bohr mag/cell

     iteration # 69     ecut=    90.00 Ry     beta= 0.20
     Davidson diagonalization with overlap
     ethr =  1.65E-07,  avg # of iterations =  5.3

     total cpu time spent up to now is     2745.6 secs

     total energy              =   -2689.56056091 Ry
     estimated scf accuracy    <       0.22823992 Ry

     total magnetization       =    -2.69 Bohr mag/cell
     absolute magnetization    =     3.04 Bohr mag/cell

     iteration # 70     ecut=    90.00 Ry     beta= 0.20
     Davidson diagonalization with overlap
     ethr =  1.65E-07,  avg # of iterations =  5.8

     total cpu time spent up to now is     2814.8 secs

     total energy              =   -2689.56472645 Ry
     estimated scf accuracy    <       0.39085748 Ry

     total magnetization       =    -3.22 Bohr mag/cell
     absolute magnetization    =     3.58 Bohr mag/cell

     iteration # 71     ecut=    90.00 Ry     beta= 0.20
     Davidson diagonalization with overlap
     ethr =  1.65E-07,  avg # of iterations =  5.2

     total cpu time spent up to now is     2878.3 secs

     total energy              =   -2689.56803212 Ry
     estimated scf accuracy    <       0.11636391 Ry

     total magnetization       =    -3.29 Bohr mag/cell
     absolute magnetization    =     3.70 Bohr mag/cell

     iteration # 72     ecut=    90.00 Ry     beta= 0.20
     Davidson diagonalization with overlap
     ethr =  1.65E-07,  avg # of iterations =  3.9

     total cpu time spent up to now is     2936.1 secs

     total energy              =   -2689.55247710 Ry
     estimated scf accuracy    <       0.59008599 Ry

     total magnetization       =    -3.03 Bohr mag/cell
     absolute magnetization    =     3.48 Bohr mag/cell

     iteration # 73     ecut=    90.00 Ry     beta= 0.20
     Davidson diagonalization with overlap
     c_bands:  1 eigenvalues not converged
     ethr =  1.65E-07,  avg # of iterations = 10.0

     total cpu time spent up to now is     3036.0 secs

     total energy              =   -2689.52727499 Ry
     estimated scf accuracy    <       2.95042448 Ry

     total magnetization       =    -3.07 Bohr mag/cell
     absolute magnetization    =     3.52 Bohr mag/cell

     iteration # 74     ecut=    90.00 Ry     beta= 0.20
     Davidson diagonalization with overlap
     c_bands:  2 eigenvalues not converged
     ethr =  1.65E-07,  avg # of iterations =  8.3

     total cpu time spent up to now is     3129.3 secs

     total energy              =   -2689.57480782 Ry
     estimated scf accuracy    <       0.11412317 Ry

     total magnetization       =    -3.88 Bohr mag/cell
     absolute magnetization    =     4.38 Bohr mag/cell

     iteration # 75     ecut=    90.00 Ry     beta= 0.20
     Davidson diagonalization with overlap
     c_bands:  1 eigenvalues not converged
     c_bands:  1 eigenvalues not converged
     c_bands:  2 eigenvalues not converged
     ethr =  1.65E-07,  avg # of iterations =  7.7

     total cpu time spent up to now is     3209.6 secs

     total energy              =   -2689.56419227 Ry
     estimated scf accuracy    <       0.76040300 Ry

     total magnetization       =    -3.85 Bohr mag/cell
     absolute magnetization    =     4.36 Bohr mag/cell

     iteration # 76     ecut=    90.00 Ry     beta= 0.20
     Davidson diagonalization with overlap
     c_bands:  2 eigenvalues not converged
     ethr =  1.65E-07,  avg # of iterations =  6.9

     total cpu time spent up to now is     3287.3 secs

     total energy              =   -2689.58105375 Ry
     estimated scf accuracy    <       0.12658380 Ry

     total magnetization       =    -4.07 Bohr mag/cell
     absolute magnetization    =     4.61 Bohr mag/cell

     iteration # 77     ecut=    90.00 Ry     beta= 0.20
     Davidson diagonalization with overlap
     ethr =  1.65E-07,  avg # of iterations =  6.1

     total cpu time spent up to now is     3367.0 secs

     total energy              =   -2689.57015647 Ry
     estimated scf accuracy    <       0.53947476 Ry

     total magnetization       =    -4.66 Bohr mag/cell
     absolute magnetization    =     5.21 Bohr mag/cell

     iteration # 78     ecut=    90.00 Ry     beta= 0.20
     Davidson diagonalization with overlap
     c_bands:  2 eigenvalues not converged
     ethr =  1.65E-07,  avg # of iterations =  9.1

     total cpu time spent up to now is     3468.3 secs

     total energy              =   -2689.52964801 Ry
     estimated scf accuracy    <       3.97354573 Ry

     total magnetization       =    -3.94 Bohr mag/cell
     absolute magnetization    =     4.50 Bohr mag/cell

     iteration # 79     ecut=    90.00 Ry     beta= 0.20
     Davidson diagonalization with overlap
     ethr =  1.65E-07,  avg # of iterations =  8.6

     total cpu time spent up to now is     3564.7 secs

     total energy              =   -2689.59193016 Ry
     estimated scf accuracy    <       0.25396164 Ry

     total magnetization       =    -4.72 Bohr mag/cell
     absolute magnetization    =     5.41 Bohr mag/cell

     iteration # 80     ecut=    90.00 Ry     beta= 0.20
     Davidson diagonalization with overlap
     ethr =  1.65E-07,  avg # of iterations =  5.7

     total cpu time spent up to now is     3632.3 secs

     total energy              =   -2689.59540720 Ry
     estimated scf accuracy    <       0.20940894 Ry

     total magnetization       =    -5.15 Bohr mag/cell
     absolute magnetization    =     5.84 Bohr mag/cell

     iteration # 81     ecut=    90.00 Ry     beta= 0.20
     Davidson diagonalization with overlap
     ethr =  1.65E-07,  avg # of iterations =  4.5

     total cpu time spent up to now is     3691.0 secs

     total energy              =   -2689.59907109 Ry
     estimated scf accuracy    <       0.18381979 Ry

     total magnetization       =    -5.15 Bohr mag/cell
     absolute magnetization    =     5.86 Bohr mag/cell

     iteration # 82     ecut=    90.00 Ry     beta= 0.20
     Davidson diagonalization with overlap
     c_bands:  2 eigenvalues not converged
     c_bands:  2 eigenvalues not converged
     ethr =  1.65E-07,  avg # of iterations =  7.2

     total cpu time spent up to now is     3781.9 secs

     total energy              =   -2689.59650206 Ry
     estimated scf accuracy    <       0.71248219 Ry

     total magnetization       =    -5.59 Bohr mag/cell
     absolute magnetization    =     6.37 Bohr mag/cell

     iteration # 83     ecut=    90.00 Ry     beta= 0.20
     Davidson diagonalization with overlap
     ethr =  1.65E-07,  avg # of iterations =  6.2

     total cpu time spent up to now is     3862.8 secs

     total energy              =   -2689.60520023 Ry
     estimated scf accuracy    <       0.21665844 Ry

     total magnetization       =    -5.97 Bohr mag/cell
     absolute magnetization    =     6.80 Bohr mag/cell

     iteration # 84     ecut=    90.00 Ry     beta= 0.20
     Davidson diagonalization with overlap
     ethr =  1.65E-07,  avg # of iterations =  7.6

     total cpu time spent up to now is     3948.7 secs

     total energy              =   -2689.56575246 Ry
     estimated scf accuracy    <       1.74827814 Ry

     total magnetization       =    -4.85 Bohr mag/cell
     absolute magnetization    =     5.83 Bohr mag/cell

     iteration # 85     ecut=    90.00 Ry     beta= 0.20
     Davidson diagonalization with overlap
     ethr =  1.65E-07,  avg # of iterations =  9.2

     total cpu time spent up to now is     4050.4 secs

     total energy              =   -2689.58011917 Ry
     estimated scf accuracy    <       1.58850082 Ry

     total magnetization       =    -4.87 Bohr mag/cell
     absolute magnetization    =     5.86 Bohr mag/cell

     iteration # 86     ecut=    90.00 Ry     beta= 0.20
     Davidson diagonalization with overlap
     ethr =  1.65E-07,  avg # of iterations =  7.5

     total cpu time spent up to now is     4143.6 secs

     total energy              =   -2689.62458380 Ry
     estimated scf accuracy    <       0.24581027 Ry

     total magnetization       =    -6.24 Bohr mag/cell
     absolute magnetization    =     7.21 Bohr mag/cell

     iteration # 87     ecut=    90.00 Ry     beta= 0.20
     Davidson diagonalization with overlap
     ethr =  1.65E-07,  avg # of iterations =  8.2

     total cpu time spent up to now is     4231.1 secs

     total energy              =   -2689.62332686 Ry
     estimated scf accuracy    <       0.47619243 Ry

     total magnetization       =    -6.13 Bohr mag/cell
     absolute magnetization    =     7.25 Bohr mag/cell

     iteration # 88     ecut=    90.00 Ry     beta= 0.20
     Davidson diagonalization with overlap
     ethr =  1.65E-07,  avg # of iterations =  6.6

     negative rho (up, down):  1.810E-06 0.000E+00

     total cpu time spent up to now is     4309.9 secs

     total energy              =   -2689.64407568 Ry
     estimated scf accuracy    <       0.25286833 Ry

     total magnetization       =    -6.65 Bohr mag/cell
     absolute magnetization    =     7.72 Bohr mag/cell

     iteration # 89     ecut=    90.00 Ry     beta= 0.20
     Davidson diagonalization with overlap
     c_bands:  1 eigenvalues not converged
     ethr =  1.65E-07,  avg # of iterations =  6.2

     negative rho (up, down):  3.123E-06 0.000E+00

     total cpu time spent up to now is     4380.4 secs

     total energy              =   -2689.63369119 Ry
     estimated scf accuracy    <       0.39703349 Ry

     total magnetization       =    -6.97 Bohr mag/cell
     absolute magnetization    =     8.07 Bohr mag/cell

     iteration # 90     ecut=    90.00 Ry     beta= 0.20
     Davidson diagonalization with overlap
     ethr =  1.65E-07,  avg # of iterations =  9.0

     negative rho (up, down):  3.964E-06 0.000E+00

     total cpu time spent up to now is     4477.4 secs

     total energy              =   -2689.59113636 Ry
     estimated scf accuracy    <       1.82603403 Ry

     total magnetization       =    -5.57 Bohr mag/cell
     absolute magnetization    =     7.05 Bohr mag/cell

     iteration # 91     ecut=    90.00 Ry     beta= 0.20
     Davidson diagonalization with overlap
     c_bands:  1 eigenvalues not converged
     c_bands:  1 eigenvalues not converged
     c_bands:  1 eigenvalues not converged
     ethr =  1.65E-07,  avg # of iterations =  9.6

     negative rho (up, down):  5.784E-06 0.000E+00

     total cpu time spent up to now is     4582.9 secs

     total energy              =   -2689.62867246 Ry
     estimated scf accuracy    <       0.95058741 Ry

     total magnetization       =    -6.03 Bohr mag/cell
     absolute magnetization    =     7.55 Bohr mag/cell

     iteration # 92     ecut=    90.00 Ry     beta= 0.20
     Davidson diagonalization with overlap
     c_bands:  1 eigenvalues not converged
     ethr =  1.65E-07,  avg # of iterations =  7.3

     negative rho (up, down):  8.022E-06 0.000E+00

     total cpu time spent up to now is     4672.7 secs

     total energy              =   -2689.66299115 Ry
     estimated scf accuracy    <       0.19553595 Ry

     total magnetization       =    -7.04 Bohr mag/cell
     absolute magnetization    =     8.48 Bohr mag/cell

     iteration # 93     ecut=    90.00 Ry     beta= 0.20
     Davidson diagonalization with overlap
     ethr =  1.65E-07,  avg # of iterations =  6.8

     negative rho (up, down):  1.234E-05 0.000E+00

     total cpu time spent up to now is     4749.0 secs

     total energy              =   -2689.66908380 Ry
     estimated scf accuracy    <       0.25106752 Ry

     total magnetization       =    -6.87 Bohr mag/cell
     absolute magnetization    =     8.52 Bohr mag/cell

     iteration # 94     ecut=    90.00 Ry     beta= 0.20
     Davidson diagonalization with overlap
     ethr =  1.65E-07,  avg # of iterations =  6.3

     negative rho (up, down):  1.475E-05 0.000E+00

     total cpu time spent up to now is     4823.9 secs

     total energy              =   -2689.67858231 Ry
     estimated scf accuracy    <       0.27891958 Ry

     total magnetization       =    -7.31 Bohr mag/cell
     absolute magnetization    =     8.89 Bohr mag/cell

     iteration # 95     ecut=    90.00 Ry     beta= 0.20
     Davidson diagonalization with overlap
     ethr =  1.65E-07,  avg # of iterations =  4.5

     negative rho (up, down):  1.696E-05 0.000E+00

     total cpu time spent up to now is     4883.6 secs

     total energy              =   -2689.67097501 Ry
     estimated scf accuracy    <       0.16165128 Ry

     total magnetization       =    -7.26 Bohr mag/cell
     absolute magnetization    =     9.02 Bohr mag/cell

     iteration # 96     ecut=    90.00 Ry     beta= 0.20
     Davidson diagonalization with overlap
     ethr =  1.65E-07,  avg # of iterations =  9.7

     negative rho (up, down):  2.610E-05 0.000E+00

     total cpu time spent up to now is     4983.2 secs

     total energy              =   -2689.63766265 Ry
     estimated scf accuracy    <       1.77035808 Ry

     total magnetization       =    -5.95 Bohr mag/cell
     absolute magnetization    =     8.13 Bohr mag/cell

     iteration # 97     ecut=    90.00 Ry     beta= 0.20
     Davidson diagonalization with overlap
     c_bands:  1 eigenvalues not converged
     c_bands:  1 eigenvalues not converged
     c_bands:  1 eigenvalues not converged
     c_bands:  1 eigenvalues not converged
     c_bands:  1 eigenvalues not converged
     c_bands:  1 eigenvalues not converged
     c_bands:  1 eigenvalues not converged
     ethr =  1.65E-07,  avg # of iterations = 10.2

     negative rho (up, down):  2.669E-05 0.000E+00

     total cpu time spent up to now is     5088.3 secs

     total energy              =   -2689.68068389 Ry
     estimated scf accuracy    <       0.54004315 Ry

     total magnetization       =    -6.64 Bohr mag/cell
     absolute magnetization    =     9.14 Bohr mag/cell

     iteration # 98     ecut=    90.00 Ry     beta= 0.20
     Davidson diagonalization with overlap
     ethr =  1.65E-07,  avg # of iterations =  7.5

     negative rho (up, down):  3.493E-05 0.000E+00

     total cpu time spent up to now is     5170.4 secs

     total energy              =   -2689.70761016 Ry
     estimated scf accuracy    <       0.13414994 Ry

     total magnetization       =    -7.30 Bohr mag/cell
     absolute magnetization    =     9.50 Bohr mag/cell

     iteration # 99     ecut=    90.00 Ry     beta= 0.20
     Davidson diagonalization with overlap
     ethr =  1.65E-07,  avg # of iterations =  4.0

     negative rho (up, down):  5.886E-05 0.000E+00

     total cpu time spent up to now is     5226.9 secs

     total energy              =   -2689.73095204 Ry
     estimated scf accuracy    <       0.10206658 Ry

     total magnetization       =    -7.25 Bohr mag/cell
     absolute magnetization    =     9.77 Bohr mag/cell

     iteration #100     ecut=    90.00 Ry     beta= 0.20
     Davidson diagonalization with overlap
     ethr =  1.65E-07,  avg # of iterations =  5.4

     negative rho (up, down):  5.103E-05 0.000E+00

     total cpu time spent up to now is     5294.3 secs

     total energy              =   -2689.72412448 Ry
     estimated scf accuracy    <       0.08253512 Ry

     total magnetization       =    -7.27 Bohr mag/cell
     absolute magnetization    =    10.42 Bohr mag/cell

     iteration #101     ecut=    90.00 Ry     beta= 0.20
     Davidson diagonalization with overlap
     ethr =  1.65E-07,  avg # of iterations =  5.7

     negative rho (up, down):  9.314E-05 0.000E+00

     total cpu time spent up to now is     5360.1 secs

     total energy              =   -2689.75723746 Ry
     estimated scf accuracy    <       0.09548626 Ry

     total magnetization       =    -7.10 Bohr mag/cell
     absolute magnetization    =    10.26 Bohr mag/cell

     iteration #102     ecut=    90.00 Ry     beta= 0.20
     Davidson diagonalization with overlap
     ethr =  1.65E-07,  avg # of iterations =  5.9

     negative rho (up, down):  9.846E-05 7.046E-07

     total cpu time spent up to now is     5438.0 secs

     total energy              =   -2689.77396337 Ry
     estimated scf accuracy    <       0.04637350 Ry

     total magnetization       =    -7.16 Bohr mag/cell
     absolute magnetization    =    11.37 Bohr mag/cell

     iteration #103     ecut=    90.00 Ry     beta= 0.20
     Davidson diagonalization with overlap
     ethr =  1.65E-07,  avg # of iterations =  5.9

     negative rho (up, down):  1.109E-04 7.424E-06

     total cpu time spent up to now is     5505.8 secs

     total energy              =   -2689.78310370 Ry
     estimated scf accuracy    <       0.07085486 Ry

     total magnetization       =    -7.15 Bohr mag/cell
     absolute magnetization    =    11.59 Bohr mag/cell

     iteration #104     ecut=    90.00 Ry     beta= 0.20
     Davidson diagonalization with overlap
     ethr =  1.65E-07,  avg # of iterations =  5.6

     negative rho (up, down):  1.514E-04 2.753E-05

     total cpu time spent up to now is     5575.0 secs

     total energy              =   -2689.79307331 Ry
     estimated scf accuracy    <       0.03900958 Ry

     total magnetization       =    -7.31 Bohr mag/cell
     absolute magnetization    =    11.80 Bohr mag/cell

     iteration #105     ecut=    90.00 Ry     beta= 0.20
     Davidson diagonalization with overlap
     ethr =  1.65E-07,  avg # of iterations =  6.0

     negative rho (up, down):  1.560E-04 3.136E-05

     total cpu time spent up to now is     5652.1 secs

     total energy              =   -2689.80311245 Ry
     estimated scf accuracy    <       0.01031544 Ry

     total magnetization       =    -7.54 Bohr mag/cell
     absolute magnetization    =    12.74 Bohr mag/cell

     iteration #106     ecut=    90.00 Ry     beta= 0.20
     Davidson diagonalization with overlap
     ethr =  1.65E-07,  avg # of iterations =  4.9

     negative rho (up, down):  1.574E-04 3.333E-05

     total cpu time spent up to now is     5711.8 secs

     total energy              =   -2689.80383644 Ry
     estimated scf accuracy    <       0.01420532 Ry

     total magnetization       =    -7.53 Bohr mag/cell
     absolute magnetization    =    12.79 Bohr mag/cell

     iteration #107     ecut=    90.00 Ry     beta= 0.20
     Davidson diagonalization with overlap
     ethr =  1.65E-07,  avg # of iterations =  3.5

     negative rho (up, down):  1.538E-04 3.280E-05

     total cpu time spent up to now is     5760.6 secs

     total energy              =   -2689.80499236 Ry
     estimated scf accuracy    <       0.00336161 Ry

     total magnetization       =    -7.58 Bohr mag/cell
     absolute magnetization    =    12.87 Bohr mag/cell

     iteration #108     ecut=    90.00 Ry     beta= 0.20
     Davidson diagonalization with overlap
     ethr =  1.65E-07,  avg # of iterations =  2.3

     negative rho (up, down):  1.581E-04 3.861E-05

     total cpu time spent up to now is     5804.3 secs

     total energy              =   -2689.80570986 Ry
     estimated scf accuracy    <       0.00334649 Ry

     total magnetization       =    -7.55 Bohr mag/cell
     absolute magnetization    =    12.85 Bohr mag/cell

     iteration #109     ecut=    90.00 Ry     beta= 0.20
     Davidson diagonalization with overlap
     ethr =  1.65E-07,  avg # of iterations =  3.7

     negative rho (up, down):  1.577E-04 4.053E-05

     total cpu time spent up to now is     5854.3 secs

     total energy              =   -2689.80639304 Ry
     estimated scf accuracy    <       0.00177233 Ry

     total magnetization       =    -7.58 Bohr mag/cell
     absolute magnetization    =    12.99 Bohr mag/cell

     iteration #110     ecut=    90.00 Ry     beta= 0.20
     Davidson diagonalization with overlap
     ethr =  1.65E-07,  avg # of iterations =  2.1

     negative rho (up, down):  1.565E-04 4.144E-05

     total cpu time spent up to now is     5896.6 secs

     total energy              =   -2689.80664627 Ry
     estimated scf accuracy    <       0.00079695 Ry

     total magnetization       =    -7.58 Bohr mag/cell
     absolute magnetization    =    13.02 Bohr mag/cell

     iteration #111     ecut=    90.00 Ry     beta= 0.20
     Davidson diagonalization with overlap
     ethr =  1.65E-07,  avg # of iterations =  2.1

     negative rho (up, down):  1.560E-04 4.088E-05

     total cpu time spent up to now is     5937.0 secs

     total energy              =   -2689.80670656 Ry
     estimated scf accuracy    <       0.00081527 Ry

     total magnetization       =    -7.59 Bohr mag/cell
     absolute magnetization    =    13.03 Bohr mag/cell

     iteration #112     ecut=    90.00 Ry     beta= 0.20
     Davidson diagonalization with overlap
     ethr =  1.65E-07,  avg # of iterations =  2.0

     negative rho (up, down):  1.552E-04 4.035E-05

     total cpu time spent up to now is     5975.4 secs

     total energy              =   -2689.80677522 Ry
     estimated scf accuracy    <       0.00042005 Ry

     total magnetization       =    -7.58 Bohr mag/cell
     absolute magnetization    =    13.02 Bohr mag/cell

     iteration #113     ecut=    90.00 Ry     beta= 0.20
     Davidson diagonalization with overlap
     ethr =  1.65E-07,  avg # of iterations =  1.7

     negative rho (up, down):  1.538E-04 4.135E-05

     total cpu time spent up to now is     6012.0 secs

     total energy              =   -2689.80686747 Ry
     estimated scf accuracy    <       0.00048695 Ry

     total magnetization       =    -7.57 Bohr mag/cell
     absolute magnetization    =    13.00 Bohr mag/cell

     iteration #114     ecut=    90.00 Ry     beta= 0.20
     Davidson diagonalization with overlap
     ethr =  1.65E-07,  avg # of iterations =  1.8

     negative rho (up, down):  1.531E-04 4.116E-05

     total cpu time spent up to now is     6049.0 secs

     total energy              =   -2689.80692579 Ry
     estimated scf accuracy    <       0.00009637 Ry

     total magnetization       =    -7.57 Bohr mag/cell
     absolute magnetization    =    13.02 Bohr mag/cell

     iteration #115     ecut=    90.00 Ry     beta= 0.20
     Davidson diagonalization with overlap
     ethr =  7.09E-08,  avg # of iterations =  2.0

     negative rho (up, down):  1.533E-04 4.111E-05

     total cpu time spent up to now is     6087.5 secs

     total energy              =   -2689.80692583 Ry
     estimated scf accuracy    <       0.00013192 Ry

     total magnetization       =    -7.57 Bohr mag/cell
     absolute magnetization    =    13.01 Bohr mag/cell

     iteration #116     ecut=    90.00 Ry     beta= 0.20
     Davidson diagonalization with overlap
     ethr =  7.09E-08,  avg # of iterations =  1.3

     negative rho (up, down):  1.533E-04 4.109E-05

     total cpu time spent up to now is     6122.1 secs

     total energy              =   -2689.80693468 Ry
     estimated scf accuracy    <       0.00006715 Ry

     total magnetization       =    -7.57 Bohr mag/cell
     absolute magnetization    =    13.01 Bohr mag/cell

     iteration #117     ecut=    90.00 Ry     beta= 0.20
     Davidson diagonalization with overlap
     ethr =  4.94E-08,  avg # of iterations =  1.0

     negative rho (up, down):  1.532E-04 4.103E-05

     total cpu time spent up to now is     6155.1 secs

     total energy              =   -2689.80694104 Ry
     estimated scf accuracy    <       0.00003425 Ry

     total magnetization       =    -7.57 Bohr mag/cell
     absolute magnetization    =    13.01 Bohr mag/cell

     iteration #118     ecut=    90.00 Ry     beta= 0.20
     Davidson diagonalization with overlap
     ethr =  2.52E-08,  avg # of iterations =  1.2

     negative rho (up, down):  1.529E-04 4.089E-05

     total cpu time spent up to now is     6188.9 secs

     total energy              =   -2689.80694721 Ry
     estimated scf accuracy    <       0.00002883 Ry

     total magnetization       =    -7.57 Bohr mag/cell
     absolute magnetization    =    13.01 Bohr mag/cell

     iteration #119     ecut=    90.00 Ry     beta= 0.20
     Davidson diagonalization with overlap
     ethr =  2.12E-08,  avg # of iterations =  1.0

     negative rho (up, down):  1.531E-04 4.095E-05

     total cpu time spent up to now is     6221.8 secs

     total energy              =   -2689.80694467 Ry
     estimated scf accuracy    <       0.00001846 Ry

     total magnetization       =    -7.57 Bohr mag/cell
     absolute magnetization    =    13.00 Bohr mag/cell

     iteration #120     ecut=    90.00 Ry     beta= 0.20
     Davidson diagonalization with overlap
     ethr =  1.36E-08,  avg # of iterations =  1.4

     negative rho (up, down):  1.528E-04 4.081E-05

     total cpu time spent up to now is     6256.9 secs

     total energy              =   -2689.80694945 Ry
     estimated scf accuracy    <       0.00001904 Ry

     total magnetization       =    -7.57 Bohr mag/cell
     absolute magnetization    =    13.01 Bohr mag/cell

     iteration #121     ecut=    90.00 Ry     beta= 0.20
     Davidson diagonalization with overlap
     ethr =  1.36E-08,  avg # of iterations =  1.0

     negative rho (up, down):  1.528E-04 4.081E-05

     total cpu time spent up to now is     6289.9 secs

     total energy              =   -2689.80695040 Ry
     estimated scf accuracy    <       0.00000699 Ry

     total magnetization       =    -7.57 Bohr mag/cell
     absolute magnetization    =    13.00 Bohr mag/cell

     iteration #122     ecut=    90.00 Ry     beta= 0.20
     Davidson diagonalization with overlap
     ethr =  5.14E-09,  avg # of iterations =  1.4

     negative rho (up, down):  1.528E-04 4.079E-05

     total cpu time spent up to now is     6324.6 secs

     total energy              =   -2689.80695078 Ry
     estimated scf accuracy    <       0.00000762 Ry

     total magnetization       =    -7.57 Bohr mag/cell
     absolute magnetization    =    13.00 Bohr mag/cell

     iteration #123     ecut=    90.00 Ry     beta= 0.20
     Davidson diagonalization with overlap
     ethr =  5.14E-09,  avg # of iterations =  1.2

     negative rho (up, down):  1.528E-04 4.077E-05

     total cpu time spent up to now is     6358.4 secs

     total energy              =   -2689.80695125 Ry
     estimated scf accuracy    <       0.00000456 Ry

     total magnetization       =    -7.57 Bohr mag/cell
     absolute magnetization    =    13.00 Bohr mag/cell

     iteration #124     ecut=    90.00 Ry     beta= 0.20
     Davidson diagonalization with overlap
     ethr =  3.35E-09,  avg # of iterations =  1.4

     negative rho (up, down):  1.528E-04 4.077E-05

     total cpu time spent up to now is     6393.0 secs

     total energy              =   -2689.80695144 Ry
     estimated scf accuracy    <       0.00000315 Ry

     total magnetization       =    -7.57 Bohr mag/cell
     absolute magnetization    =    13.00 Bohr mag/cell

     iteration #125     ecut=    90.00 Ry     beta= 0.20
     Davidson diagonalization with overlap
     ethr =  2.32E-09,  avg # of iterations =  1.0

     negative rho (up, down):  1.527E-04 4.076E-05

     total cpu time spent up to now is     6426.0 secs

     total energy              =   -2689.80695169 Ry
     estimated scf accuracy    <       0.00000084 Ry

     total magnetization       =    -7.57 Bohr mag/cell
     absolute magnetization    =    13.00 Bohr mag/cell

     iteration #126     ecut=    90.00 Ry     beta= 0.20
     Davidson diagonalization with overlap
     ethr =  6.15E-10,  avg # of iterations =  1.1

     negative rho (up, down):  1.527E-04 4.076E-05

     total cpu time spent up to now is     6459.2 secs

     total energy              =   -2689.80695174 Ry
     estimated scf accuracy    <       0.00000118 Ry

     total magnetization       =    -7.57 Bohr mag/cell
     absolute magnetization    =    13.00 Bohr mag/cell

     iteration #127     ecut=    90.00 Ry     beta= 0.20
     Davidson diagonalization with overlap
     ethr =  6.15E-10,  avg # of iterations =  1.0

     negative rho (up, down):  1.527E-04 4.075E-05

     total cpu time spent up to now is     6492.2 secs

     total energy              =   -2689.80695185 Ry
     estimated scf accuracy    <       0.00000040 Ry

     total magnetization       =    -7.57 Bohr mag/cell
     absolute magnetization    =    13.00 Bohr mag/cell

     iteration #128     ecut=    90.00 Ry     beta= 0.20
     Davidson diagonalization with overlap
     ethr =  2.94E-10,  avg # of iterations =  1.0

     negative rho (up, down):  1.527E-04 4.074E-05

     total cpu time spent up to now is     6525.2 secs

     total energy              =   -2689.80695189 Ry
     estimated scf accuracy    <       0.00000048 Ry

     total magnetization       =    -7.57 Bohr mag/cell
     absolute magnetization    =    13.00 Bohr mag/cell

     iteration #129     ecut=    90.00 Ry     beta= 0.20
     Davidson diagonalization with overlap
     ethr =  2.94E-10,  avg # of iterations =  1.1

     negative rho (up, down):  1.527E-04 4.073E-05

     total cpu time spent up to now is     6558.7 secs

     total energy              =   -2689.80695196 Ry
     estimated scf accuracy    <       0.00000050 Ry

     total magnetization       =    -7.57 Bohr mag/cell
     absolute magnetization    =    13.00 Bohr mag/cell

     iteration #130     ecut=    90.00 Ry     beta= 0.20
     Davidson diagonalization with overlap
     ethr =  2.94E-10,  avg # of iterations =  1.0

     negative rho (up, down):  1.527E-04 4.073E-05

     total cpu time spent up to now is     6591.8 secs

     total energy              =   -2689.80695194 Ry
     estimated scf accuracy    <       0.00000038 Ry

     total magnetization       =    -7.57 Bohr mag/cell
     absolute magnetization    =    13.00 Bohr mag/cell

     iteration #131     ecut=    90.00 Ry     beta= 0.20
     Davidson diagonalization with overlap
     ethr =  2.76E-10,  avg # of iterations =  1.3

     negative rho (up, down):  1.527E-04 4.071E-05

     total cpu time spent up to now is     6625.9 secs

     total energy              =   -2689.80695201 Ry
     estimated scf accuracy    <       0.00000041 Ry

     total magnetization       =    -7.57 Bohr mag/cell
     absolute magnetization    =    13.00 Bohr mag/cell

     iteration #132     ecut=    90.00 Ry     beta= 0.20
     Davidson diagonalization with overlap
     ethr =  2.76E-10,  avg # of iterations =  1.1

     negative rho (up, down):  1.527E-04 4.072E-05

     total cpu time spent up to now is     6660.0 secs

     total energy              =   -2689.80695200 Ry
     estimated scf accuracy    <       0.00000022 Ry

     total magnetization       =    -7.57 Bohr mag/cell
     absolute magnetization    =    13.00 Bohr mag/cell

     iteration #133     ecut=    90.00 Ry     beta= 0.20
     Davidson diagonalization with overlap
     ethr =  1.65E-10,  avg # of iterations =  1.2

     negative rho (up, down):  1.527E-04 4.071E-05

     total cpu time spent up to now is     6694.0 secs

     total energy              =   -2689.80695203 Ry
     estimated scf accuracy    <       0.00000016 Ry

     total magnetization       =    -7.57 Bohr mag/cell
     absolute magnetization    =    13.00 Bohr mag/cell

     iteration #134     ecut=    90.00 Ry     beta= 0.20
     Davidson diagonalization with overlap
     ethr =  1.15E-10,  avg # of iterations =  1.0

     negative rho (up, down):  1.527E-04 4.071E-05

     total cpu time spent up to now is     6727.0 secs

     total energy              =   -2689.80695204 Ry
     estimated scf accuracy    <       0.00000008 Ry

     total magnetization       =    -7.57 Bohr mag/cell
     absolute magnetization    =    13.00 Bohr mag/cell

     iteration #135     ecut=    90.00 Ry     beta= 0.20
     Davidson diagonalization with overlap
     ethr =  6.11E-11,  avg # of iterations =  1.1

     negative rho (up, down):  1.527E-04 4.071E-05

     total cpu time spent up to now is     6760.4 secs

     total energy              =   -2689.80695205 Ry
     estimated scf accuracy    <       0.00000006 Ry

     total magnetization       =    -7.57 Bohr mag/cell
     absolute magnetization    =    13.00 Bohr mag/cell

     iteration #136     ecut=    90.00 Ry     beta= 0.20
     Davidson diagonalization with overlap
     ethr =  4.31E-11,  avg # of iterations =  1.0

     negative rho (up, down):  1.527E-04 4.071E-05

     total cpu time spent up to now is     6793.5 secs

     total energy              =   -2689.80695205 Ry
     estimated scf accuracy    <       0.00000003 Ry

     total magnetization       =    -7.57 Bohr mag/cell
     absolute magnetization    =    13.00 Bohr mag/cell

     iteration #137     ecut=    90.00 Ry     beta= 0.20
     Davidson diagonalization with overlap
     ethr =  2.46E-11,  avg # of iterations =  1.3

     negative rho (up, down):  1.527E-04 4.070E-05

     total cpu time spent up to now is     6828.1 secs

     total energy              =   -2689.80695205 Ry
     estimated scf accuracy    <       0.00000004 Ry

     total magnetization       =    -7.57 Bohr mag/cell
     absolute magnetization    =    13.00 Bohr mag/cell

     iteration #138     ecut=    90.00 Ry     beta= 0.20
     Davidson diagonalization with overlap
     ethr =  2.46E-11,  avg # of iterations =  1.0

     negative rho (up, down):  1.527E-04 4.070E-05

     total cpu time spent up to now is     6861.1 secs

     total energy              =   -2689.80695205 Ry
     estimated scf accuracy    <       0.00000001 Ry

     total magnetization       =    -7.57 Bohr mag/cell
     absolute magnetization    =    13.00 Bohr mag/cell

     iteration #139     ecut=    90.00 Ry     beta= 0.20
     Davidson diagonalization with overlap
     ethr =  9.22E-12,  avg # of iterations =  2.0

     negative rho (up, down):  1.527E-04 4.070E-05

     total cpu time spent up to now is     6900.3 secs

     total energy              =   -2689.80695205 Ry
     estimated scf accuracy    <       0.00000003 Ry

     total magnetization       =    -7.57 Bohr mag/cell
     absolute magnetization    =    13.00 Bohr mag/cell

     iteration #140     ecut=    90.00 Ry     beta= 0.20
     Davidson diagonalization with overlap
     ethr =  9.22E-12,  avg # of iterations =  1.9

     negative rho (up, down):  1.527E-04 4.070E-05

     total cpu time spent up to now is     6937.9 secs

     total energy              =   -2689.80695206 Ry
     estimated scf accuracy    <       0.00000001 Ry

     total magnetization       =    -7.57 Bohr mag/cell
     absolute magnetization    =    13.00 Bohr mag/cell

     iteration #141     ecut=    90.00 Ry     beta= 0.20
     Davidson diagonalization with overlap
     ethr =  8.07E-12,  avg # of iterations =  1.0

     negative rho (up, down):  1.527E-04 4.070E-05

     Magnetic moment per site:
     atom:    1    charge:   16.3689    magn:   -0.8373    constr:    0.0000
     atom:    2    charge:   14.0173    magn:    2.4180    constr:    0.0000
     atom:    3    charge:   16.3791    magn:   -0.3114    constr:    0.0000
     atom:    4    charge:   14.0133    magn:   -2.7014    constr:    0.0000
     atom:    5    charge:   16.3792    magn:   -0.3114    constr:    0.0000
     atom:    6    charge:   14.0133    magn:   -2.7014    constr:    0.0000
     atom:    7    charge:   16.3791    magn:   -0.3114    constr:    0.0000
     atom:    8    charge:   14.0133    magn:   -2.7015    constr:    0.0000

     total cpu time spent up to now is     6970.9 secs

     End of self-consistent calculation

     Number of k-points >= 100: set verbosity='high' to print the bands.

     the Fermi energy is    16.5121 ev

!    total energy              =   -2689.80695205 Ry
     estimated scf accuracy    <          7.5E-09 Ry
     smearing contrib. (-TS)   =      -0.00381231 Ry
     internal energy E=F+TS    =   -2689.80313974 Ry

     total magnetization       =    -7.57 Bohr mag/cell
     absolute magnetization    =    13.00 Bohr mag/cell

     convergence has been achieved in 141 iterations

     negative rho (up, down):  1.527E-04 4.070E-05

     Forces acting on atoms (cartesian axes, Ry/au):

     atom    1 type  1   force =    -0.00000006   -0.00000000    0.00000000
     atom    2 type  2   force =     0.00000006    0.00000000    0.00000000
     atom    3 type  1   force =    -0.00000006   -0.00000000    0.00000000
     atom    4 type  2   force =     0.00000005    0.00000000    0.00000000
     atom    5 type  1   force =    -0.00000004    0.00000000    0.00000000
     atom    6 type  2   force =     0.00000007   -0.00000000   -0.00000000
     atom    7 type  1   force =    -0.00000007   -0.00000000    0.00000000
     atom    8 type  2   force =     0.00000005   -0.00000000   -0.00000000

     Total force =     0.000000     Total SCF correction =     0.000000


     Computing stress (Cartesian axis) and pressure


     negative rho (up, down):  1.527E-04 4.070E-05
          total   stress  (Ry/bohr**3)                   (kbar)     P=      129.73
   0.00088190  -0.00000000  -0.00000000          129.73       -0.00       -0.00
  -0.00000000   0.00088188   0.00000000           -0.00      129.73        0.00
  -0.00000000   0.00000000   0.00088192           -0.00        0.00      129.74


     Entering Dynamics;  it =     1   time =  0.00000 pico-seconds

  new lattice vectors (alat unit) :
   1.000066282  -0.000000709  -0.000000055
  -0.000000709   1.000065153   0.000000646
  -0.000000055   0.000000646   1.000066576
  new unit-cell volume =    660.2477 (a.u.)^3
  new positions in cryst coord
Ni      -0.000949801   0.500168714  -0.000426506
Fe       0.500044016  -0.000045921   0.499794102
Ni       0.000206309  -0.000002217   0.500777867
Fe       0.500145462   0.499715624  -0.000480300
Ni       0.500740948  -0.000511802  -0.000541668
Fe      -0.000213112   0.500255976   0.500682605
Ni       0.500002544   0.500345305   0.500190307
Fe       0.000023634   0.000074321   0.000003593
  new positions in cart coord (alat unit)
Ni      -0.000950218   0.500201302  -0.000426211
Fe       0.500077132  -0.000045955   0.499827349
Ni       0.000206295  -0.000001894   0.500811207
Fe       0.500178258   0.499747828  -0.000480037
Ni       0.500774138  -0.000512191  -0.000541732
Fe      -0.000213508   0.500288893   0.500716262
Ni       0.500035303   0.500377873   0.500223904
Fe       0.000023635   0.000074325   0.000003593

     Ekin =     0.01995091 Ry    T =    0.0 K  Etot =    -2689.78699665
     new unit-cell volume =    660.24771 a.u.^3 (    97.83862 Ang^3 )
     density =      7.77586 g/cm^3

CELL_PARAMETERS (angstrom)
   4.607905400  -0.000003265  -0.000000252
  -0.000003265   4.607900200   0.000002976
  -0.000000252   0.000002976   4.607906756

ATOMIC_POSITIONS (angstrom)
Ni           -0.0043782256        2.3047275193       -0.0019638118
Fe            2.3041553952       -0.0002117441        2.3030044929
Ni            0.0009505266       -0.0000087249        2.3075377156
Fe            2.3046213428        2.3026380901       -0.0022118167
Ni            2.3073669182       -0.0023599695       -0.0024960821
Fe           -0.0009837582        2.3051311031        2.3071002491
Ni            2.3039626621        2.3055410863        2.3048316586
Fe            0.0001089026        0.0003424620        0.0000165549



     Writing output data file ./pwscf.save/
     NEW-OLD atomic charge density approx. for the potential

     Check: negative core charge=   -0.000010

     negative rho (up, down):  1.516E-04 4.064E-05
     extrapolated charge  136.02534, renormalised to  136.00000
     Generating pointlists ...

     total cpu time spent up to now is     7000.2 secs

     Self-consistent Calculation

     iteration #  1     ecut=    90.00 Ry     beta= 0.20
     Davidson diagonalization with overlap
[...]

     total cpu time spent up to now is   121642.9 secs

     total energy              =   -2689.89530316 Ry
     estimated scf accuracy    <       0.00000060 Ry

     total magnetization       =    -7.80 Bohr mag/cell
     absolute magnetization    =    13.61 Bohr mag/cell

     iteration # 26     ecut=    90.00 Ry     beta= 0.20
     Davidson diagonalization with overlap
     ethr =  2.97E-10,  avg # of iterations =  1.0

     negative rho (up, down):  1.361E-04 1.831E-05

     total cpu time spent up to now is   121675.6 secs

     total energy              =   -2689.89530319 Ry
     estimated scf accuracy    <       0.00000031 Ry

     total magnetization       =    -7.80 Bohr mag/cell
     absolute magnetization    =    13.61 Bohr mag/cell

     iteration # 27     ecut=    90.00 Ry     beta= 0.20
     Davidson diagonalization with overlap
     ethr =  2.28E-10,  avg # of iterations =  1.0

     negative rho (up, down):  1.361E-04 1.831E-05

     total cpu time spent up to now is   121708.4 secs

     total energy              =   -2689.89530320 Ry
     estimated scf accuracy    <       0.00000016 Ry

     total magnetization       =    -7.80 Bohr mag/cell
     absolute magnetization    =    13.61 Bohr mag/cell

     iteration # 28     ecut=    90.00 Ry     beta= 0.20
     Davidson diagonalization with overlap
     ethr =  1.14E-10,  avg # of iterations =  1.0

     negative rho (up, down):  1.361E-04 1.831E-05

     total cpu time spent up to now is   121741.1 secs

     total energy              =   -2689.89530322 Ry
     estimated scf accuracy    <       0.00000010 Ry

     total magnetization       =    -7.80 Bohr mag/cell
     absolute magnetization    =    13.61 Bohr mag/cell

     iteration # 29     ecut=    90.00 Ry     beta= 0.20
     Davidson diagonalization with overlap
     ethr =  7.18E-11,  avg # of iterations =  1.0

     negative rho (up, down):  1.361E-04 1.831E-05

     total cpu time spent up to now is   121773.9 secs

     total energy              =   -2689.89530323 Ry
     estimated scf accuracy    <       0.00000009 Ry

     total magnetization       =    -7.80 Bohr mag/cell
     absolute magnetization    =    13.61 Bohr mag/cell

     iteration # 30     ecut=    90.00 Ry     beta= 0.20
     Davidson diagonalization with overlap
     ethr =  6.89E-11,  avg # of iterations =  1.0

     negative rho (up, down):  1.361E-04 1.831E-05

     total cpu time spent up to now is   121806.7 secs

     total energy              =   -2689.89530325 Ry
     estimated scf accuracy    <       0.00000006 Ry

     total magnetization       =    -7.80 Bohr mag/cell
     absolute magnetization    =    13.61 Bohr mag/cell

     iteration # 31     ecut=    90.00 Ry     beta= 0.20
     Davidson diagonalization with overlap
     ethr =  4.05E-11,  avg # of iterations =  1.0

     negative rho (up, down):  1.361E-04 1.831E-05

     total cpu time spent up to now is   121839.4 secs

     total energy              =   -2689.89530326 Ry
     estimated scf accuracy    <       0.00000012 Ry

     total magnetization       =    -7.80 Bohr mag/cell
     absolute magnetization    =    13.61 Bohr mag/cell

     iteration # 32     ecut=    90.00 Ry     beta= 0.20
     Davidson diagonalization with overlap
     ethr =  4.05E-11,  avg # of iterations =  1.0

     negative rho (up, down):  1.361E-04 1.831E-05

     total cpu time spent up to now is   121873.0 secs

     total energy              =   -2689.89530326 Ry
     estimated scf accuracy    <       0.00000009 Ry

     total magnetization       =    -7.80 Bohr mag/cell
     absolute magnetization    =    13.61 Bohr mag/cell

     iteration # 33     ecut=    90.00 Ry     beta= 0.20
     Davidson diagonalization with overlap
     ethr =  4.05E-11,  avg # of iterations =  1.0

     negative rho (up, down):  1.360E-04 1.831E-05

     total cpu time spent up to now is   121906.0 secs

     total energy              =   -2689.89530327 Ry
     estimated scf accuracy    <       0.00000007 Ry

     total magnetization       =    -7.80 Bohr mag/cell
     absolute magnetization    =    13.61 Bohr mag/cell

     iteration # 34     ecut=    90.00 Ry     beta= 0.20
     Davidson diagonalization with overlap
     ethr =  4.05E-11,  avg # of iterations =  1.0

     negative rho (up, down):  1.361E-04 1.831E-05

     total cpu time spent up to now is   121939.2 secs

     total energy              =   -2689.89530327 Ry
     estimated scf accuracy    <       0.00000007 Ry

     total magnetization       =    -7.80 Bohr mag/cell
     absolute magnetization    =    13.61 Bohr mag/cell

     iteration # 35     ecut=    90.00 Ry     beta= 0.20
     Davidson diagonalization with overlap
     ethr =  4.05E-11,  avg # of iterations =  1.1

     negative rho (up, down):  1.360E-04 1.831E-05

     total cpu time spent up to now is   121972.8 secs

     total energy              =   -2689.89530328 Ry
     estimated scf accuracy    <       0.00000006 Ry

     total magnetization       =    -7.80 Bohr mag/cell
     absolute magnetization    =    13.61 Bohr mag/cell

     iteration # 36     ecut=    90.00 Ry     beta= 0.20
     Davidson diagonalization with overlap
     ethr =  4.05E-11,  avg # of iterations =  1.0

     negative rho (up, down):  1.360E-04 1.831E-05

     total cpu time spent up to now is   122005.8 secs

     total energy              =   -2689.89530328 Ry
     estimated scf accuracy    <       0.00000003 Ry

     total magnetization       =    -7.80 Bohr mag/cell
     absolute magnetization    =    13.61 Bohr mag/cell

     iteration # 37     ecut=    90.00 Ry     beta= 0.20
     Davidson diagonalization with overlap
     ethr =  2.15E-11,  avg # of iterations =  1.0

     negative rho (up, down):  1.360E-04 1.831E-05

     total cpu time spent up to now is   122038.8 secs

     total energy              =   -2689.89530329 Ry
     estimated scf accuracy    <       0.00000003 Ry

     total magnetization       =    -7.80 Bohr mag/cell
     absolute magnetization    =    13.61 Bohr mag/cell

     iteration # 38     ecut=    90.00 Ry     beta= 0.20
     Davidson diagonalization with overlap
     ethr =  2.01E-11,  avg # of iterations =  1.0

     negative rho (up, down):  1.360E-04 1.831E-05

     total cpu time spent up to now is   122071.7 secs

     total energy              =   -2689.89530329 Ry
     estimated scf accuracy    <       0.00000003 Ry

     total magnetization       =    -7.80 Bohr mag/cell
     absolute magnetization    =    13.61 Bohr mag/cell

     iteration # 39     ecut=    90.00 Ry     beta= 0.20
     Davidson diagonalization with overlap
     ethr =  1.87E-11,  avg # of iterations =  1.0

     negative rho (up, down):  1.360E-04 1.831E-05

     total cpu time spent up to now is   122104.7 secs

     total energy              =   -2689.89530329 Ry
     estimated scf accuracy    <       0.00000002 Ry

     total magnetization       =    -7.80 Bohr mag/cell
     absolute magnetization    =    13.61 Bohr mag/cell

     iteration # 40     ecut=    90.00 Ry     beta= 0.20
     Davidson diagonalization with overlap
     ethr =  1.70E-11,  avg # of iterations =  1.0

     negative rho (up, down):  1.360E-04 1.831E-05

     total cpu time spent up to now is   122137.7 secs

     total energy              =   -2689.89530330 Ry
     estimated scf accuracy    <       0.00000002 Ry

     total magnetization       =    -7.80 Bohr mag/cell
     absolute magnetization    =    13.61 Bohr mag/cell

     iteration # 41     ecut=    90.00 Ry     beta= 0.20
     Davidson diagonalization with overlap
     ethr =  1.70E-11,  avg # of iterations =  1.4

     negative rho (up, down):  1.360E-04 1.831E-05

     total cpu time spent up to now is   122172.4 secs

     total energy              =   -2689.89530329 Ry
     estimated scf accuracy    <       0.00000003 Ry

     total magnetization       =    -7.80 Bohr mag/cell
     absolute magnetization    =    13.61 Bohr mag/cell

     iteration # 42     ecut=    90.00 Ry     beta= 0.20
     Davidson diagonalization with overlap
     ethr =  1.70E-11,  avg # of iterations =  1.0

     negative rho (up, down):  1.360E-04 1.831E-05

     total cpu time spent up to now is   122205.6 secs

     total energy              =   -2689.89530330 Ry
     estimated scf accuracy    <       0.00000002 Ry

     total magnetization       =    -7.80 Bohr mag/cell
     absolute magnetization    =    13.61 Bohr mag/cell

     iteration # 43     ecut=    90.00 Ry     beta= 0.20
     Davidson diagonalization with overlap
     ethr =  1.70E-11,  avg # of iterations =  1.0

     negative rho (up, down):  1.360E-04 1.831E-05

     total cpu time spent up to now is   122238.6 secs

     total energy              =   -2689.89530330 Ry
     estimated scf accuracy    <       0.00000002 Ry

     total magnetization       =    -7.80 Bohr mag/cell
     absolute magnetization    =    13.61 Bohr mag/cell

     iteration # 44     ecut=    90.00 Ry     beta= 0.20
     Davidson diagonalization with overlap
     ethr =  1.70E-11,  avg # of iterations =  1.0

     negative rho (up, down):  1.360E-04 1.831E-05

     total cpu time spent up to now is   122271.5 secs

     total energy              =   -2689.89530330 Ry
     estimated scf accuracy    <       0.00000002 Ry

     total magnetization       =    -7.80 Bohr mag/cell
     absolute magnetization    =    13.61 Bohr mag/cell

     iteration # 45     ecut=    90.00 Ry     beta= 0.20
     Davidson diagonalization with overlap
     ethr =  1.14E-11,  avg # of iterations =  1.0

     negative rho (up, down):  1.360E-04 1.831E-05

     total cpu time spent up to now is   122304.5 secs

     total energy              =   -2689.89530330 Ry
     estimated scf accuracy    <       0.00000001 Ry

     total magnetization       =    -7.80 Bohr mag/cell
     absolute magnetization    =    13.61 Bohr mag/cell

     iteration # 46     ecut=    90.00 Ry     beta= 0.20
     Davidson diagonalization with overlap
     ethr =  8.22E-12,  avg # of iterations =  1.0

     negative rho (up, down):  1.360E-04 1.831E-05

     total cpu time spent up to now is   122337.4 secs

     total energy              =   -2689.89530331 Ry
     estimated scf accuracy    <       0.00000001 Ry

     total magnetization       =    -7.80 Bohr mag/cell
     absolute magnetization    =    13.61 Bohr mag/cell

     iteration # 47     ecut=    90.00 Ry     beta= 0.20
     Davidson diagonalization with overlap
     ethr =  7.36E-12,  avg # of iterations =  1.0

     negative rho (up, down):  1.360E-04 1.832E-05

     Magnetic moment per site:
     atom:    1    charge:   16.2535    magn:   -0.8722    constr:    0.0000
     atom:    2    charge:   13.9120    magn:    2.5054    constr:    0.0000
     atom:    3    charge:   16.2705    magn:   -0.3427    constr:    0.0000
     atom:    4    charge:   13.8934    magn:   -2.8279    constr:    0.0000
     atom:    5    charge:   16.2423    magn:   -0.3484    constr:    0.0000
     atom:    6    charge:   13.9179    magn:   -2.7697    constr:    0.0000
     atom:    7    charge:   16.2768    magn:   -0.2799    constr:    0.0000
     atom:    8    charge:   13.8934    magn:   -2.8142    constr:    0.0000

     total cpu time spent up to now is   122370.4 secs

     End of self-consistent calculation

     Number of k-points >= 100: set verbosity='high' to print the bands.

     the Fermi energy is    15.7812 ev

!    total energy              =   -2689.89530331 Ry
     estimated scf accuracy    <          7.3E-09 Ry
     smearing contrib. (-TS)   =      -0.00645322 Ry
     internal energy E=F+TS    =   -2689.88885009 Ry

     total magnetization       =    -7.80 Bohr mag/cell
     absolute magnetization    =    13.61 Bohr mag/cell

     convergence has been achieved in  47 iterations

     negative rho (up, down):  1.360E-04 1.832E-05

     Forces acting on atoms (cartesian axes, Ry/au):

     atom    1 type  1   force =    -0.04124061    0.01132971   -0.02122399
     atom    2 type  2   force =    -0.00726397    0.00998075   -0.01755984
     atom    3 type  1   force =    -0.00552642   -0.01223926    0.04366925
     atom    4 type  2   force =    -0.00501526   -0.00564682   -0.00754327
     atom    5 type  1   force =     0.03035259   -0.02255870   -0.02974438
     atom    6 type  2   force =     0.00861645   -0.00251941    0.00611177
     atom    7 type  1   force =     0.01790229    0.02508380    0.01251110
     atom    8 type  2   force =     0.00217491   -0.00343008    0.01377937

     Total force =     0.093204     Total SCF correction =     0.000052


     Computing stress (Cartesian axis) and pressure


     negative rho (up, down):  1.360E-04 1.832E-05
          total   stress  (Ry/bohr**3)                   (kbar)     P=       22.53
   0.00015748   0.00010134   0.00007090           23.17       14.91       10.43
   0.00010134   0.00019185  -0.00000806           14.91       28.22       -1.19
   0.00007090  -0.00000806   0.00011016           10.43       -1.19       16.20


     Entering Dynamics;  it =   102   time =  0.09772 pico-seconds

  new lattice vectors (alat unit) :
   1.010559860   0.012039950   0.004373917
   0.012039950   1.007210129   0.002052816
   0.004373917   0.002052816   1.016025918
  new unit-cell volume =    682.5527 (a.u.)^3
  new positions in cryst coord
Ni      -0.056427043   0.525309621   0.011122110
Fe       0.507297101   0.026962931   0.449199959
Ni       0.003695254   0.006628791   0.552562642
Fe       0.432048208   0.444954342  -0.006864121
Ni       0.554705600  -0.057045799  -0.052491429
Fe       0.000901879   0.504915265   0.499284340
Ni       0.498370410   0.525869630   0.487176761
Fe       0.059391035   0.022366346   0.060092860
  new positions in cart coord (alat unit)
Ni      -0.050649556   0.528440624   0.012131909
Fe       0.514943484   0.034187294   0.458673026
Ni       0.006230949   0.007855385   0.561447736
Fe       0.441937782   0.453350269  -0.004170972
Ni       0.559646792  -0.050886234  -0.051023520
Fe       0.009174386   0.509591567   0.508326273
Ni       0.512095447   0.536661657   0.498243561
Fe       0.060550327   0.023366035   0.061361589

     Ekin =     0.03488763 Ry    T =  368.8 K  Etot =    -2689.86041103
     new unit-cell volume =    682.55268 a.u.^3 (   101.14387 Ang^3 )
     density =      7.52175 g/cm^3

CELL_PARAMETERS (angstrom)
   4.656255613   0.055475276   0.020153262
   0.055475276   4.640821391   0.009458556
   0.020153262   0.009458556   4.681441020

ATOMIC_POSITIONS (angstrom)
Ni           -0.2333728919        2.4348430198        0.0558989837
Fe            2.3726535948        0.1575213761        2.1133818364
Ni            0.0287097201        0.0361944737        2.5869265899
Fe            2.0362725254        2.0888566984       -0.0192181729
Ni            2.5786285591       -0.2344634130       -0.2350959722
Fe            0.0422719001        2.3479941051        2.3421641357
Ni            2.3595309836        2.4727222515        2.2957070310
Fe            0.2789916879        0.1076613422        0.2827296559



     Maximum number of iterations reached, stopping

     init_run     :     16.72s CPU     18.75s WALL (       1 calls)
     electrons    : 114845.51s CPU 119401.46s WALL (     102 calls)
     update_pot   :    227.08s CPU    230.54s WALL (     101 calls)
     forces       :    858.98s CPU    911.22s WALL (     102 calls)
     stress       :   1490.95s CPU   1556.16s WALL (     102 calls)

     Called by init_run:
     wfcinit      :     13.79s CPU     14.77s WALL (       1 calls)
     potinit      :      0.94s CPU      1.06s WALL (       1 calls)
     hinit0       :      1.16s CPU      1.79s WALL (       1 calls)

     Called by electrons:
     c_bands      :  96637.61s CPU  99101.30s WALL (    3074 calls)
     sum_band     :  14606.74s CPU  15890.17s WALL (    3074 calls)
     v_of_rho     :    580.48s CPU    674.15s WALL (    3176 calls)
     newd         :   2206.84s CPU   2918.51s WALL (    3176 calls)
     PAW_pot      :    808.26s CPU    811.75s WALL (    3277 calls)
     mix_rho      :     68.80s CPU     81.17s WALL (    3074 calls)

     Called by c_bands:
     init_us_2    :   1547.77s CPU   1589.73s WALL (  813204 calls)
     cegterg      :  93072.37s CPU  95421.40s WALL (  387324 calls)

     Called by *egterg:
     cdiaghg      :  11202.94s CPU  11528.96s WALL ( 1050211 calls)
     h_psi        :  39838.83s CPU  40867.49s WALL ( 1063063 calls)
     s_psi        :   6705.20s CPU   6759.83s WALL ( 1063063 calls)
     g_psi        :    169.58s CPU    171.90s WALL (  675613 calls)

     Called by h_psi:
     h_psi:calbec :  10142.60s CPU  10636.51s WALL ( 1063063 calls)
     vloc_psi     :  21112.48s CPU  21545.89s WALL ( 1063063 calls)
     add_vuspsi   :   7644.93s CPU   7728.04s WALL ( 1063063 calls)

     General routines
     calbec       :  14557.23s CPU  15278.78s WALL ( 1527373 calls)
     fft          :    227.11s CPU    300.51s WALL (   83377 calls)
     ffts         :      9.61s CPU      9.79s WALL (   12500 calls)
     fftw         :  23967.24s CPU  24452.17s WALL (******** calls)
     interpolate  :     25.54s CPU     33.49s WALL (    6352 calls)

     Parallel routines
     fft_scatt_xy :   2259.46s CPU   2298.74s WALL (******** calls)
     fft_scatt_yz :  11156.73s CPU  11458.96s WALL (******** calls)

     PWSCF        :   1d 8h41m CPU   1d 9h59m WALL


   This run was terminated on:  21: 9:27  10Feb2022            

=------------------------------------------------------------------------------=
   JOB DONE.
=------------------------------------------------------------------------------=
Note: The following floating-point exceptions are signalling: IEEE_INVALID_FLAG IEEE_UNDERFLOW_FLAG IEEE_DENORMAL
Note: The following floating-point exceptions are signalling: IEEE_UNDERFLOW_FLAG IEEE_DENORMAL
Note: The following floating-point exceptions are signalling: IEEE_UNDERFLOW_FLAG IEEE_DENORMAL
Note: The following floating-point exceptions are signalling: IEEE_UNDERFLOW_FLAG IEEE_DENORMAL
Note: The following floating-point exceptions are signalling: IEEE_INVALID_FLAG IEEE_UNDERFLOW_FLAG IEEE_DENORMAL
Note: The following floating-point exceptions are signalling: IEEE_UNDERFLOW_FLAG IEEE_DENORMAL
Note: The following floating-point exceptions are signalling: IEEE_UNDERFLOW_FLAG IEEE_DENORMAL
Note: The following floating-point exceptions are signalling: IEEE_UNDERFLOW_FLAG IEEE_DENORMAL
Note: The following floating-point exceptions are signalling: IEEE_UNDERFLOW_FLAG IEEE_DENORMAL
Note: The following floating-point exceptions are signalling: IEEE_UNDERFLOW_FLAG IEEE_DENORMAL
Note: The following floating-point exceptions are signalling: IEEE_INVALID_FLAG IEEE_UNDERFLOW_FLAG IEEE_DENORMAL
Note: The following floating-point exceptions are signalling: IEEE_UNDERFLOW_FLAG IEEE_DENORMAL
Note: The following floating-point exceptions are signalling: IEEE_UNDERFLOW_FLAG IEEE_DENORMAL
Note: The following floating-point exceptions are signalling: IEEE_UNDERFLOW_FLAG IEEE_DENORMAL
Note: The following floating-point exceptions are signalling: IEEE_UNDERFLOW_FLAG IEEE_DENORMAL
Note: The following floating-point exceptions are signalling: IEEE_UNDERFLOW_FLAG IEEE_DENORMAL
Note: The following floating-point exceptions are signalling: IEEE_UNDERFLOW_FLAG IEEE_DENORMAL
Note: The following floating-point exceptions are signalling: IEEE_UNDERFLOW_FLAG IEEE_DENORMAL
Note: The following floating-point exceptions are signalling: IEEE_INVALID_FLAG IEEE_UNDERFLOW_FLAG IEEE_DENORMAL
Note: The following floating-point exceptions are signalling: IEEE_UNDERFLOW_FLAG IEEE_DENORMAL
Note: The following floating-point exceptions are signalling: IEEE_UNDERFLOW_FLAG IEEE_DENORMAL
Note: The following floating-point exceptions are signalling: IEEE_UNDERFLOW_FLAG IEEE_DENORMAL
Note: The following floating-point exceptions are signalling: IEEE_UNDERFLOW_FLAG IEEE_DENORMAL
Note: The following floating-point exceptions are signalling: IEEE_UNDERFLOW_FLAG IEEE_DENORMAL
