LAMMPS data file via write_data, version 10 Mar 2021, timestep = 0
1 atoms
1 atom types
1 atoms
1 atom types
0.0 2.44388158817266 xlo xhi
0.0 2.30411674418953 ylo yhi
0.0 0.783170223619668 zlo zhi
-0.814513700677414 -1.96622557354907 -1.22182625120923 xy xz yz

Masses

1 55.84500
Atoms

1 1	0.0000000000        0.0000000000        0.0000000000
